ITEM: TIMESTEP
1610000
ITEM: NUMBER OF ATOMS
2993
ITEM: BOX BOUNDS pp pp pp
-3.9619652461414745e-01 3.4794896524610735e+01
-3.9619652461414745e-01 3.4794896524610735e+01
-3.9619652461414745e-01 3.4794896524610735e+01
ITEM: ATOMS id type x y z
2769 3 2.7836 0.883566 0.964119
1852 1 1.71754 1.05009 1.93427
2233 1 3.25794 2.06809 0.125223
2253 1 2.53356 -0.361013 -0.0211249
1546 1 2.41111 4.01078 3.72706
1062 1 4.21319 0.281447 1.60746
1670 1 7.9197 3.33266 1.67
2611 3 8.1435 2.15855 0.830781
584 1 8.15853 0.814839 1.52335
2829 3 12.1822 1.87516 2.59125
1673 1 11.9283 2.05026 1.03532
1088 1 10.9321 2.40548 3.37867
1129 1 9.6126 2.3465 0.210576
738 1 12.7247 0.574746 2.99948
1858 1 8.75084 3.19083 3.87524
2017 1 13.3439 3.00483 2.94848
1195 1 15.9075 0.683103 1.01782
1554 1 15.6629 3.93313 2.16286
2786 3 16.3715 -0.0717916 2.31261
1694 1 16.2497 2.55982 34.5106
2785 3 16.2042 1.04949 34.6233
1725 1 17.2845 1.10965 2.89401
1304 1 19.3108 2.51476 0.577229
1171 1 20.648 0.32272 0.663791
2950 3 20.4969 1.8239 -0.0839729
638 1 18.7556 3.06203 3.59008
2126 1 21.922 2.32788 0.271956
292 1 25.4965 2.66617 2.71447
261 4 25.3547 0.582026 1.42596
1919 1 23.8827 -0.254219 2.88338
2601 3 24.4999 3.50728 3.5934
2091 1 28.0045 0.488073 0.924294
759 1 26.7413 0.21061 3.61551
1035 1 28.638 3.38736 1.93167
526 1 26.9717 3.3102 0.0866963
1418 1 31.5562 3.16201 3.41075
236 4 33.8935 2.26112 2.88936
1244 1 34.2574 3.08482 0.755366
1184 1 32.0481 0.560716 0.793558
1675 1 0.738466 5.59089 2.59034
1478 1 2.83527 5.11932 1.47677
2919 3 2.37523 5.37092 2.90691
2768 3 3.4837 5.87088 0.188614
631 1 2.7272 7.10742 -0.125168
2818 3 -0.37556 5.55135 3.7052
927 1 2.94284 6.54248 3.60854
682 1 4.8754 6.20766 0.705148
2431 3 6.21104 6.74361 1.50264
397 1 6.77253 5.52359 2.20399
69 2 8.10525 4.75597 3.04738
2052 1 6.90461 7.66791 0.591324
1875 1 5.67498 7.5755 2.70003
1456 1 9.48496 5.73032 2.52627
2424 3 10.0904 7.12559 2.27908
940 1 11.1861 6.8932 1.1964
2357 3 12.0807 7.92801 0.243621
413 1 10.9802 7.39977 3.69891
2051 1 9.32448 8.47965 2.17623
2358 3 14.2165 4.16947 2.34437
2094 1 13.3563 4.5578 1.0625
575 1 15.3508 7.36655 2.50216
2374 3 13.8749 5.48197 -0.15821
2244 1 13.3919 7.13717 0.109328
1981 1 14.0199 5.45676 3.32302
2810 3 14.6891 6.76056 3.81358
427 1 13.4365 7.72813 4.17437
2133 1 15.3318 5.59892 -0.223558
269 4 17.4118 4.43206 0.555509
722 1 18.5015 6.34723 -0.0216899
1671 1 18.9546 6.58752 3.60568
992 1 21.5636 5.1211 3.24071
1630 1 17.7685 8.47486 2.5331
2839 3 18.6175 8.03321 3.78448
654 1 23.879 4.35677 2.45216
938 1 22.3945 5.44903 0.691729
1757 1 23.3094 6.83374 2.57223
2697 3 22.6526 5.32846 2.17369
439 1 25.275 7.18176 0.937916
2961 3 23.9337 7.98153 1.55476
497 1 23.0202 8.31232 0.462973
1352 1 26.0017 6.52742 3.37506
2639 3 27.9186 4.1686 0.921428
1312 1 28.7055 5.09951 -0.00891813
2840 3 26.4321 6.68828 1.96254
564 1 26.8194 5.22315 1.5328
975 1 27.5575 7.70043 1.79734
1563 1 34.4533 4.16111 4.10556
786 1 31.361 5.55243 2.68623
2598 3 32.2818 6.81786 2.71271
1108 1 33.7921 6.22814 2.76561
1901 1 32.0498 7.36369 1.1574
1168 1 32.2122 7.94717 3.71255
2889 3 32.7366 8.16469 0.00824008
1185 1 34.1869 8.15376 -0.166293
615 1 0.314197 9.08229 3.78797
1605 1 1.39627 10.0995 1.89726
2557 3 2.91234 10.5079 1.88458
2109 1 3.54998 11.5816 2.67406
565 1 3.18986 10.6068 0.366295
1434 1 3.59808 9.06268 2.32981
2577 3 0.258029 10.3739 2.99062
309 1 0.866308 11.5741 3.81993
2787 3 5.00527 8.94505 3.03372
2191 1 5.94608 9.94711 2.4737
239 4 5.81497 12.3394 3.15997
188 4 8.08823 9.58874 0.722329
592 1 7.12422 13.2048 1.45802
273 4 11.5476 11.2871 2.02523
479 1 9.22093 11.6798 0.966422
830 1 12.1325 9.31814 0.808167
2445 3 8.5764 13.052 0.922145
795 1 10.5465 10.626 3.85193
2467 3 16.1923 8.76712 2.28109
2192 1 16.2505 9.05282 0.800917
391 1 16.5497 11.6824 0.0820753
1970 1 15.5099 9.68182 3.26441
1104 1 14.1561 12.3297 0.690956
2474 3 15.7074 12.6247 0.901567
1870 1 21.1771 10.3898 0.515586
263 4 21.958 12.1076 1.66621
2135 1 19.8178 9.17288 3.71434
1701 1 21.8652 10.6172 3.59959
2221 1 24.5055 9.11413 2.4272
648 1 24.2642 12.2701 2.08471
250 4 24.3292 10.8589 3.90915
2946 3 25.3234 12.8141 1.15266
773 1 26.5765 11.4826 3.44319
1144 1 26.435 11.9779 0.649749
119 4 27.3892 9.7887 1.02843
2011 1 28.7173 10.0287 3.76309
1212 1 29.5606 9.5758 0.390828
1797 1 31.0364 10.2535 2.36979
2679 3 30.7651 10.1883 0.910642
2305 1 30.7538 11.6755 0.14843
1804 1 32.0922 9.63277 0.11797
2025 1 34.112 10.6867 2.42856
134 4 32.3032 11.7315 3.50212
85 2 1.5479 13.1516 4.27727
2755 3 2.28319 15.4673 -0.0330406
2286 1 3.39158 14.7307 0.849046
2215 1 2.3619 14.0898 3.00446
1462 1 1.58502 16.5232 0.873286
1740 1 3.41676 16.4373 2.69206
2804 3 3.54407 14.8627 2.48134
1961 1 4.88732 14.4915 2.84881
603 1 8.52051 15.5782 3.29053
2197 1 9.70949 13.7984 1.96879
311 1 10.2319 16.3109 1.38521
2783 3 9.84161 15.2806 2.43101
1983 1 11.0127 15.2405 3.48803
1041 1 12.6459 13.3831 2.98044
1768 1 8.98779 13.834 34.8337
2820 3 12.3585 14.5265 3.93105
162 4 11.614 17.4153 -0.173145
1575 1 15.8836 12.6571 2.36632
490 1 13.2377 15.8424 3.59175
2341 3 13.9553 16.6096 2.42996
2213 1 15.382 16.1343 2.69357
1417 1 15.8659 14.1329 0.127251
676 1 13.3734 16.6345 1.05088
1552 1 20.5779 14.1173 2.56018
577 1 18.0491 14.8687 2.96122
2568 3 19.4553 14.5845 3.5127
2065 1 19.6671 16.757 0.753376
182 4 17.4968 16.9748 2.28738
2642 3 21.1534 17.2714 0.854315
813 1 24.4046 13.3742 -0.0557638
1065 1 24.3404 15.6344 2.13087
2791 3 25.6786 15.6725 1.42495
10 2 23.1692 16.3307 3.11589
1874 1 21.8412 16.4493 -0.274266
1018 1 25.6483 16.2036 0.032417
640 1 21.8574 16.9119 2.17514
347 1 26.1873 14.1949 1.64803
1678 1 29.0639 15.7975 1.13743
93 2 28.2684 16.5271 2.51522
331 1 26.5672 16.54 2.38051
2608 3 29.9666 15.5868 -0.112463
1664 1 30.3635 14.0774 -0.0145156
947 1 31.7451 13.1436 2.04336
2851 3 31.4217 13.0531 0.563643
1306 1 32.7485 13.3692 -0.230045
2832 3 32.8377 16.2801 3.22305
1868 1 31.0583 16.5126 -0.384331
666 1 32.9463 16.5937 1.73013
1963 1 31.3448 15.8011 3.45791
961 1 33.6784 14.8683 3.48078
2434 3 2.1891 17.4663 2.21715
706 1 1.04171 17.2865 3.20142
1750 1 2.77234 18.7108 1.74441
1415 1 0.397901 20.7441 0.0394827
954 1 35.0407 20.38 2.57445
2655 3 1.79635 21.566 -0.125601
1284 1 7.53489 17.9422 2.97522
130 4 4.11917 20.685 2.25172
1105 1 6.80401 20.2901 2.15276
2510 3 7.89456 19.2512 2.13042
1026 1 7.69451 18.6782 0.628099
1653 1 9.25415 19.7697 2.61623
167 4 10.8854 21.4538 0.988008
735 1 12.3501 19.4457 1.21865
491 1 10.0383 19.2813 -0.271266
958 1 12.7996 20.4065 3.64565
1952 1 13.7094 18.1787 3.10411
2708 3 13.3717 19.6256 2.4322
445 1 14.6471 20.3744 1.79915
2845 3 15.9205 21.2861 2.32585
1148 1 16.6935 17.6336 0.334283
1023 1 15.7356 21.5152 3.81648
1503 1 17.1358 20.283 2.09483
2594 3 18.705 20.5083 2.15253
287 1 19.0255 20.1764 0.71082
2270 1 19.294 19.6276 3.15921
1730 1 21.1315 18.8618 0.698295
2384 3 20.3605 20.0009 -0.239982
1562 1 21.3054 21.1325 -0.119021
2695 3 24.4833 19.9642 1.35781
869 1 24.0567 18.8747 0.481623
855 1 25.0604 19.6239 2.80163
1729 1 23.524 21.1215 1.42859
785 1 22.9205 20.0203 3.75748
2153 1 25.9044 20.7854 0.840955
1128 1 27.6274 20.4394 2.68328
2558 3 27.3907 20.3257 1.04928
2076 1 27.8364 19.1406 0.3065
389 1 28.6706 18.1903 3.05128
2630 3 28.3777 19.4992 3.81087
1127 1 29.932 20.0554 3.64546
2060 1 28.2361 21.6308 0.546225
2220 1 31.3512 18.6381 1.92224
2713 3 34.5187 20.4407 1.19276
2203 1 33.9818 19.1051 0.762217
75 2 32.3097 18.0222 0.501496
2815 3 31.2527 19.9736 2.68951
492 1 31.0684 21.2095 1.72623
884 1 2.42404 21.7853 1.20889
756 1 0.632636 24.9256 1.76906
152 4 2.63068 23.9035 2.97636
1622 1 4.26088 24.5712 1.763
1936 1 5.24798 22.1214 0.297137
2148 1 7.26717 23.6577 2.59215
2705 3 5.04187 25.2964 0.795723
33 2 7.97953 25.2267 1.88823
1333 1 5.25425 22.767 3.69963
2553 3 6.51766 23.5218 3.91824
1943 1 8.4453 24.4731 0.227897
985 1 8.71086 21.8788 0.124736
2685 3 10.8176 23.9658 3.23336
1256 1 9.69514 24.646 2.48615
1716 1 10.6413 22.4367 3.46494
1935 1 12.2253 24.2679 2.5614
1487 1 11.8307 23.0162 34.7397
1843 1 16.0939 22.4923 1.41722
2726 3 13.6304 24.9108 3.17791
802 1 14.4809 24.9904 1.95206
53 2 15.577 24.0728 0.875831
2175 1 14.3767 23.2116 -0.242038
705 1 18.8154 22.1434 2.22449
345 1 17.2144 24.8044 1.82525
450 1 19.5581 24.4656 2.92494
2673 3 18.5009 25.4907 2.1382
2349 3 20.0622 22.9297 2.79009
1106 1 21.0842 23.0301 1.63576
1828 1 20.4778 22.4062 4.09869
2163 1 21.7867 25.6897 0.945261
82 2 22.4747 22.3677 0.819865
518 1 23.3854 23.9429 1.71138
2936 3 22.9632 25.3604 2.03612
585 1 22.8212 25.6987 3.47722
1581 1 25.7904 25.8707 -0.408222
1253 1 28.1646 23.39 2.33766
2576 3 28.7145 23.1817 0.908413
110 2 27.3777 24.6481 3.17194
1385 1 26.3961 25.5087 1.98639
2080 1 30.1936 23.2968 0.690082
1696 1 28.5432 25.9437 3.85865
1652 1 27.8618 23.948 -0.0594616
1467 1 33.5734 21.5801 0.864403
528 1 32.4805 23.7448 2.26092
28 2 31.9885 22.5635 0.945862
2844 3 32.1719 24.1318 3.70209
1120 1 32.9082 25.2443 4.32191
1767 1 30.6786 24.875 3.44274
2975 3 0.254274 26.321 1.43634
2072 1 1.75417 26.9884 0.840268
2730 3 0.774455 28.5888 3.12177
308 1 0.771142 29.5064 1.92012
1512 1 0.0964844 27.1017 2.87367
2789 3 2.71463 26.6885 -0.336274
2228 1 2.25796 28.3193 3.64579
1549 1 6.46809 25.851 1.08068
1836 1 4.20108 26.6258 0.269079
2090 1 7.83998 26.0273 3.61194
137 4 6.00425 29.3367 2.75367
1156 1 6.61576 29.8222 0.32487
727 1 8.29179 29.7924 3.2448
1098 1 8.81835 26.9119 1.48473
2573 3 10.1756 27.414 1.25028
1660 1 11.1415 27.3927 2.56081
1699 1 10.0352 29.1137 1.17149
1871 1 10.8784 27.0444 -0.0123257
2635 3 12.6884 27.6347 2.76353
758 1 12.0084 30.2412 -0.0191699
729 1 12.864 28.7443 3.8695
1734 1 13.2102 26.3519 3.51088
1641 1 13.4292 27.9122 1.58783
1629 1 15.8607 29.7813 3.19368
1450 1 15.5887 29.9244 0.672424
2623 3 16.2943 28.6129 0.193222
1608 1 16.6588 27.8996 1.52678
2629 3 15.7221 30.7392 2.11476
74 2 17.1884 28.0316 3.26351
688 1 19.3343 25.8964 0.839035
1615 1 18.4299 26.6923 3.01384
2778 3 20.6797 26.6119 0.343321
1851 1 20.727 27.9765 1.11966
1742 1 18.3165 29.1898 3.8299
2932 3 21.7721 29.2763 1.24236
340 1 24.0198 26.3149 1.30551
697 1 22.6601 29.1347 2.39932
912 1 22.8762 29.121 0.0757743
279 4 25.0997 29.0378 2.8238
2590 3 25.5908 26.3807 1.00356
2118 1 25.9846 27.8226 1.14522
736 1 29.9419 27.5738 1.71864
1827 1 29.8197 29.4 3.63209
1545 1 28.4895 28.4669 -0.286969
2480 3 29.9387 28.1725 -0.0886888
235 4 26.7012 29.9316 34.1986
1636 1 34.3622 26.8024 0.564624
2482 3 30.694 28.2779 2.85191
1327 1 32.0488 28.7398 2.59632
267 4 33.2441 29.0167 0.587081
1787 1 31.0073 29.3088 -0.0778671
1854 1 2.97899 31.5175 0.470728
372 1 2.28967 31.8996 3.01022
2082 1 0.380213 32.7583 0.365468
2362 3 3.48896 31.6768 1.88929
1801 1 -0.0759699 32.7651 2.83238
2574 3 1.1623 32.7553 3.79591
1777 1 4.25155 30.5533 2.45499
1592 1 4.36859 32.9794 1.794
2001 1 4.31886 34.3692 3.94948
2397 3 4.86687 34.3354 2.5315
981 1 6.36029 34.4889 2.40614
92 2 7.9458 34.1095 1.58972
546 1 7.03734 33.3536 0.0404224
481 1 8.15999 32.9691 3.05207
2636 3 10.5461 30.2277 0.324807
320 1 9.55736 33.8617 0.844477
2929 3 10.7019 32.9531 0.65118
447 1 10.0424 31.4928 1.14144
1785 1 11.9908 33.2772 1.40844
2418 3 9.05746 32.9107 4.22867
233 4 12.6608 33.413 3.59268
661 1 15.2555 34.7633 3.1724
1274 1 14.605 31.6902 1.9003
691 1 16.0735 33.0278 0.0321509
1110 1 17.1415 31.4763 1.77899
270 4 13.6805 32.2949 -0.313996
679 1 20.9086 30.4798 0.794792
2425 3 17.2947 32.8418 0.888913
875 1 17.4939 34.0968 1.82829
1659 1 18.5576 32.7049 0.0698164
2006 1 21.0185 33.1804 -0.108115
2392 3 21.7299 34.3456 0.434858
2069 1 21.9397 33.8207 1.92826
2433 3 23.1559 33.6451 2.92397
2309 1 24.1385 32.5485 2.01651
2676 3 25.432 31.8816 2.6626
1095 1 25.7407 34.0443 -0.106029
1979 1 25.1702 31.1463 3.94966
979 1 25.6545 30.8109 1.56649
429 1 29.0594 30.9633 1.88617
2864 3 29.3256 30.9164 3.35014
589 1 26.6184 32.9562 2.70021
2089 1 28.8567 34.1482 3.33553
2746 3 27.3904 34.0192 3.77401
101 2 30.4332 33.4801 3.82959
1271 1 30.5826 31.7312 3.71646
2527 3 34.4159 32.5482 1.36591
1214 1 31.7042 34.4605 3.01376
2346 3 31.9347 34.3476 1.43604
495 1 30.8819 33.3487 0.992069
837 1 33.7941 31.2325 1.28785
1132 1 33.42 33.7835 1.31282
1410 1 1.32779 1.18158 5.28567
102 2 2.79049 0.242518 4.69344
2589 3 -0.0529873 0.869227 5.89735
2843 3 3.53698 3.55112 7.52854
651 1 2.92649 3.34989 6.01906
408 1 3.60221 1.86177 4.08593
2543 3 3.63573 3.35751 4.60221
745 1 2.19095 3.25073 8.28548
1923 1 0.0956032 34.8934 6.84656
1362 1 4.51301 2.47929 7.80745
969 1 7.32584 0.670995 6.28108
2096 1 4.81901 4.11854 4.50321
2921 3 8.62939 0.0730629 5.91577
1879 1 9.4596 0.778381 4.70107
2782 3 9.83706 2.38744 4.56017
1177 1 10.4794 3.06767 5.76657
1199 1 10.5703 2.44249 8.38949
385 1 13.9965 1.55838 6.24451
2360 3 14.4535 2.67027 7.42348
853 1 15.6859 3.40536 6.75709
2879 3 13.2647 0.156878 6.55501
1259 1 13.2976 3.53251 7.60269
866 1 12.9043 -0.0563919 8.05625
2453 3 17.262 3.13186 6.49391
417 1 17.1561 2.05061 5.26429
2714 3 18.1567 1.86422 4.01968
2116 1 17.8623 2.66595 7.7326
1220 1 19.1196 0.751936 4.50604
1723 1 19.9352 1.08075 7.05369
2833 3 20.2275 0.38866 5.73371
1064 1 21.7525 3.39096 6.04529
1960 1 17.4111 0.0805354 8.24711
1506 1 21.5628 0.980489 5.19729
1375 1 23.3782 2.5454 4.20701
1239 1 23.4588 1.70907 6.73167
2376 3 22.534 2.20234 5.62566
2111 1 24.5814 3.90474 8.00965
29 2 24.4574 2.0359 8.23648
193 4 27.882 2.36763 3.77534
2040 1 27.4359 2.67648 5.76885
2678 3 27.4634 2.62225 7.24935
1724 1 28.7646 2.36447 7.85121
326 1 29.3515 -0.157049 7.16877
2085 1 26.3181 1.92377 7.98049
883 1 27.2142 4.25501 7.66188
1682 1 34.9489 2.20801 6.85999
556 1 33.9727 0.906757 4.963
2559 3 33.8395 2.66338 7.84539
1198 1 33.0209 1.54071 8.45783
226 4 30.6469 1.35654 8.49872
47 2 0.685041 8.09918 5.24175
1165 1 -0.0883281 6.47871 4.93883
2292 1 3.80537 5.03078 7.54668
1940 1 2.43624 8.42695 5.63561
1211 1 4.4792 7.58906 6.83666
558 1 6.7484 6.41066 6.68026
2071 1 7.91344 5.37173 4.7342
2681 3 8.07311 5.68155 6.23418
71 2 5.31364 6.14196 7.91097
621 1 8.05445 4.27265 7.08326
2252 1 9.32367 6.47904 6.58988
210 4 11.269 4.85917 7.49931
2698 3 12.0665 7.50835 4.85799
1479 1 12.0744 6.27361 5.68378
1229 1 12.5249 7.19906 8.37686
1656 1 15.4403 6.60685 5.03868
238 4 17.4193 6.92572 6.58349
186 4 20.0418 4.81159 4.80284
576 1 17.8541 4.40234 6.04005
2602 3 21.0474 6.83569 7.66612
1121 1 20.0711 6.44171 6.4682
1806 1 25.1673 4.40401 4.6192
1409 1 22.4398 7.44391 7.13074
1054 1 23.9468 6.91802 5.16551
1282 1 25.6226 6.01377 7.01195
2933 3 23.0919 7.99559 5.7599
63 2 25.8516 6.34115 5.23818
2719 3 25.812 4.78407 7.91374
1205 1 21.4944 5.59819 8.47015
327 1 29.64 4.6319 4.24186
2898 3 28.9001 5.84976 5.06689
283 1 27.4041 5.47711 5.11188
2031 1 29.4713 6.09497 6.49245
1866 1 29.1976 7.05535 4.17798
649 1 26.4959 8.1783 5.58729
2618 3 31.1776 4.48647 3.9487
1915 1 32.9866 3.8086 7.41268
633 1 31.793 5.0886 5.12993
173 4 31.6384 5.63693 7.25664
2911 3 -0.18351 9.32805 8.07314
871 1 0.470138 10.8077 7.86497
1708 1 2.50395 12.7114 5.71371
2421 3 3.88159 8.67957 6.00406
330 1 3.82485 10.1603 6.6658
1425 1 4.24335 12.5295 7.41423
1324 1 4.80513 8.82804 4.55853
2733 3 5.11526 11.3303 6.74699
2131 1 5.63598 11.6654 5.42674
1342 1 5.99263 11.0175 7.90316
381 1 8.74475 11.6595 6.14217
2187 1 11.7558 8.91205 5.55713
2758 3 11.6626 10.4008 4.91772
2836 3 9.93689 11.3061 7.24903
711 1 11.206 11.0283 6.26527
1690 1 9.59485 10.1282 8.11808
2237 1 10.2275 12.6151 8.00608
1687 1 13.0186 10.7235 4.45229
1349 1 16.5059 8.87325 7.42405
256 4 15.1304 11.516 4.27399
2314 1 15.1087 10.9174 6.49349
2736 3 15.7776 10.1246 7.59505
1117 1 16.7908 11.1685 8.34981
1392 1 18.0467 8.39364 5.09554
998 1 17.4927 11.8163 5.2547
2606 3 21.0627 9.68093 4.50365
322 1 20.8027 10.3369 5.82495
2312 1 19.4859 12.4442 6.86528
762 1 21.8206 8.2619 4.74923
183 4 22.5998 11.4422 6.99918
798 1 23.6687 9.39267 6.07701
1061 1 28.7861 9.18927 6.53343
2728 3 27.7215 10.9703 4.27383
1881 1 28.4441 12.3322 4.86283
2369 3 27.2693 9.12887 6.39127
1286 1 27.0184 10.5537 5.73129
2130 1 26.6245 9.32299 7.79341
208 4 30.4432 8.69799 4.93667
2893 3 29.8392 12.5442 5.5526
632 1 27.3604 11.6566 8.46606
1484 1 -0.0935198 8.73574 6.65567
2185 1 30.6736 11.2541 5.45903
1388 1 31.8986 8.67388 6.82248
2962 3 31.9698 9.12688 8.25566
1051 1 33.4928 9.66237 8.45101
1502 1 31.2641 10.6132 8.3951
2032 1 0.478525 14.36 5.04982
713 1 1.96613 12.8352 8.16011
2375 3 2.90971 13.2296 7.00905
1578 1 3.08365 14.7394 6.97249
80 2 4.0447 16.1989 6.9647
2147 1 3.60583 16.9879 8.51618
1412 1 7.99686 12.5161 3.8844
1216 1 7.19906 16.3532 5.04769
2544 3 7.15745 15.4254 6.40164
1882 1 5.70772 15.7494 6.72738
1586 1 7.11708 13.8416 5.82087
1176 1 8.17546 15.6426 7.35311
2777 3 8.39108 12.9992 5.23547
1486 1 9.58384 13.8912 5.42098
163 4 10.7517 14.816 7.05116
1380 1 11.447 16.8728 7.39872
2124 1 12.2399 14.4185 5.39333
860 1 15.1208 13.6652 5.50178
2515 3 16.0934 14.3613 6.37574
2165 1 15.9237 15.8875 6.03276
1159 1 15.6854 14.3497 7.9086
2416 3 18.475 12.8273 5.74341
2303 1 19.3992 13.4874 4.74983
1621 1 19.8025 16.0339 4.31689
1738 1 17.6394 14.1353 6.3081
1681 1 20.4656 15.9238 6.63096
2481 3 19.7044 16.8129 5.72121
1058 1 18.1789 16.8655 6.24208
111 2 21.7656 15.6419 8.16137
2916 3 20.1007 12.7864 8.36982
910 1 23.6606 12.7505 5.29037
1097 1 22.903 15.0983 4.4518
1326 1 22.5876 14.2595 6.89102
2600 3 23.4675 14.2172 5.62531
2117 1 24.904 14.7135 6.2041
2247 1 22.9643 17.0865 7.70463
2881 3 25.8493 15.1579 7.42958
1513 1 26.2505 16.5622 7.25175
477 1 29.4583 13.1053 6.91065
652 1 28.9928 15.5479 3.79952
846 1 27.0654 14.1392 7.39035
23 2 28.3811 13.2984 8.38069
1534 1 30.4559 13.7984 4.77305
2351 3 30.2649 15.3912 4.58863
1492 1 34.7258 13.1333 8.39317
1638 1 33.4016 15.177 6.04288
690 1 33.5896 12.9114 5.02052
1635 1 30.3342 15.9381 5.95996
2486 3 34.111 14.3186 4.9732
189 4 33.2767 14.9945 8.48481
1741 1 3.57002 17.2936 5.71195
1523 1 0.736281 20.3814 5.53063
643 1 3.16457 19.7066 6.13243
2432 3 2.22405 20.8268 5.48342
2563 3 4.2611 18.6504 5.52916
1255 1 4.59504 19.0625 4.1166
726 1 5.44072 18.6339 6.49135
2888 3 6.46918 19.4856 7.49367
1844 1 7.35095 20.2966 6.44184
433 1 5.63101 20.3137 8.36816
2743 3 8.34262 17.0074 4.06394
567 1 9.54994 17.7289 4.46752
159 4 10.7026 20.3327 4.77353
1796 1 11.7227 19.3821 6.32319
2596 3 12.107 18.242 7.30914
2533 3 16.7572 17.2724 5.72317
898 1 16.8235 17.7908 4.32246
435 1 14.5753 20.1244 6.66395
1853 1 13.7069 17.9108 7.33524
2477 3 14.9137 18.9621 7.49593
587 1 16.2032 18.1717 6.92577
590 1 20.1454 18.2181 5.51683
2417 3 19.574 20.7845 7.89206
325 1 18.1205 21.0343 7.15686
1631 1 19.6257 19.0938 8.2592
1014 1 20.4576 21.0583 6.80582
218 4 21.134 20.0618 4.99535
925 1 23.9006 17.6008 4.19521
2978 3 24.175 19.1562 4.16407
1709 1 22.528 19.1829 6.49305
694 1 25.0356 19.5676 5.33329
2352 3 23.098 18.6498 7.78906
662 1 24.4369 19.1262 8.29957
1877 1 27.7318 19.5274 5.09859
151 4 26.329 19.0632 7.02881
635 1 28.76 18.6821 7.79127
583 1 32.4662 20.1496 3.61849
254 4 34.7787 18.7787 4.10869
1509 1 33.4808 17.1717 7.8976
2042 1 33.3432 17.2355 4.27142
1907 1 32.9817 19.4417 6.4954
2989 3 32.9128 18.51 7.71013
2110 1 2.69841 21.4477 4.17948
1158 1 2.63687 22.0004 6.59394
2875 3 1.94171 23.3459 6.90039
1680 1 1.35324 23.961 5.62988
516 1 2.94409 24.2888 7.55095
1790 1 3.10535 26.0151 4.05686
48 2 7.77413 21.9925 6.57712
295 1 6.00122 24.8767 4.62336
2170 1 7.29932 22.7343 5.01762
1930 1 7.15736 22.7617 7.89804
1849 1 9.50544 22.1053 6.59988
1281 1 11.9824 22.2633 6.01209
815 1 11.0889 24.6712 4.62363
1909 1 10.495 24.3725 6.93998
2332 3 10.8871 22.8011 6.90316
2677 3 11.0104 25.5224 5.95074
314 1 11.247 22.6901 8.41329
380 1 14.1065 24.4093 4.54956
265 4 14.1874 22.1515 5.57808
1922 1 16.1762 22.6892 6.49867
997 1 13.2411 23.9881 7.94333
88 2 13.7247 25.6368 7.58666
660 1 15.2441 26.1015 6.70456
2790 3 17.343 22.4131 7.37876
1150 1 17.5539 25.5651 5.81624
1308 1 18.4977 23.5243 7.34258
2784 3 18.8697 24.9906 6.60961
1319 1 20.0395 24.9025 5.63885
1585 1 18.9308 25.9186 7.82351
775 1 24.4098 24.7006 6.0395
591 1 21.7848 24.6441 8.56774
214 4 22.1658 25.5731 6.11465
2484 3 25.9072 24.6389 5.92449
1075 1 26.4974 24.0114 4.62017
2206 1 26.6251 23.7948 7.12269
530 1 28.3123 25.597 8.0595
2367 3 27.631 24.2371 8.358
1780 1 30.2049 25.6003 5.85665
2570 3 29.9503 25.8704 4.36456
211 4 32.4199 21.4991 6.04174
1846 1 30.9566 22.2659 7.5153
275 4 34.5414 25.7053 5.94197
533 1 31.7993 22.949 4.57752
867 1 33.7186 23.4669 6.75137
696 1 30.6663 24.6697 8.21464
1747 1 0.00832515 29.23 4.32614
2521 3 2.48634 27.1058 4.80549
907 1 1.3018 26.8395 5.73991
2744 3 2.98859 28.7946 6.89154
1704 1 1.73748 29.6092 6.41183
1460 1 3.57208 27.8392 5.66641
45 2 0.420815 30.2294 5.60054
733 1 2.84269 28.0228 8.18926
1441 1 5.74183 27.3231 3.73519
2304 1 4.03485 30.0151 7.08605
2380 3 6.63018 26.3519 4.45958
986 1 7.05435 26.7333 5.88607
1458 1 7.01008 28.9349 7.76326
995 1 12.4693 25.9784 6.36633
103 2 8.23568 27.8556 6.70035
333 1 10.5498 29.4884 4.45468
2338 3 8.98873 30.0374 4.50394
1662 1 8.58426 29.336 5.79428
1998 1 9.94913 26.5306 5.81771
2212 1 12.4489 29.6616 6.02761
2793 3 12.0415 29.89 4.59748
864 1 9.05033 27.2307 8.10386
1037 1 16.1501 27.1975 4.55124
2443 3 16.4362 26.7328 5.96808
2389 3 16.4917 29.4686 6.93977
749 1 15.1233 29.494 6.32018
889 1 17.0463 27.9017 6.89269
668 1 16.641 29.9748 8.34777
2235 1 17.5853 30.0982 6.00753
2202 1 19.714 28.7057 5.86158
2528 3 20.7729 28.8489 7.16239
2665 3 18.9201 29.8174 5.04729
2277 1 19.8526 28.9991 8.41202
2061 1 21.5682 27.51 7.14151
1918 1 21.8973 29.9064 6.90107
387 1 24.2543 27.7004 5.80305
2456 3 25.7818 27.681 5.69776
2106 1 26.2298 28.1785 4.33167
241 4 23.5943 28.6892 7.96405
636 1 26.4283 26.1169 5.87073
7 2 29.9776 26.2319 7.50504
684 1 26.4712 28.4045 7.00903
2519 3 28.0608 28.9554 7.28835
1330 1 29.0275 27.8397 7.08489
354 1 28.4887 30.1576 6.45256
1042 1 30.7029 27.2107 4.06372
2370 3 32.6787 30.0767 6.9012
1800 1 31.7705 29.5505 5.87447
2100 1 33.4294 26.9014 7.49962
902 1 32.6175 29.3025 8.28127
1096 1 31.1201 27.18 8.5277
1799 1 34.2404 30.2173 6.65207
915 1 1.63225 34.1153 4.06937
2297 1 3.61867 34.997 6.2225
2311 1 0.772673 31.9204 4.95837
501 1 2.28074 33.3736 7.47103
2967 3 3.70264 33.8865 7.25213
1 2 0.546505 33.6306 8.05922
529 1 5.58336 30.7652 5.09765
554 1 4.33301 32.4863 6.53888
1470 1 6.05803 31.2212 7.59404
2762 3 5.01938 31.1419 6.44123
1313 1 4.57966 34.3042 8.3813
1202 1 10.4334 33.5108 3.9564
829 1 8.34565 33.8008 5.31379
1541 1 9.67307 -0.349695 7.05077
523 1 12.2393 -0.174131 5.51538
1365 1 8.97051 31.6021 5.08098
560 1 11.1396 30.732 8.10651
324 1 8.5659 30.8532 7.93991
1564 1 12.2557 31.2965 4.12962
68 2 12.8634 30.467 7.44361
1338 1 14.5014 34.275 6.36834
2410 3 14.9888 32.9391 7.11172
1430 1 13.7657 32.0165 7.3571
1494 1 16.1032 32.3789 6.3175
588 1 19.7455 31.0136 5.02905
2242 1 20.3707 34.0954 5.71269
2041 1 22.8386 33.0253 4.2534
262 4 21.6279 32.1253 6.12659
1113 1 23.6782 32.3848 7.13789
2328 3 24.9078 31.7916 7.78554
1994 1 24.642 30.4902 8.5247
680 1 26.1232 31.8661 6.91934
857 1 28.2121 31.1763 4.27992
646 1 27.2438 33.4437 5.20039
16 2 27.6264 31.8731 5.94717
1571 1 29.2242 32.4925 6.78085
2741 3 30.0363 33.7745 6.82251
1737 1 30.8696 33.7348 5.51222
312 1 31.2366 33.6043 8.1097
1294 1 32.0667 31.5495 7.3831
1574 1 33.8079 33.2879 8.22059
2669 3 32.4523 32.8089 8.39307
2217 1 1.17749 1.19208 11.1266
2985 3 1.95389 2.40025 11.772
1559 1 3.46426 2.30836 11.3154
2053 1 1.29869 3.43349 10.7481
2504 3 1.06672 3.88704 9.23129
493 1 -0.33403 3.37861 8.94932
2556 3 1.18017 -0.371069 11.0182
157 4 6.12117 0.863573 8.29415
1885 1 7.69636 2.64246 8.94437
665 1 5.63035 1.20198 10.7607
2551 3 4.93591 1.74737 11.9584
1249 1 8.05104 2.66706 12.5313
2123 1 9.21758 0.439594 12.4688
801 1 10.1903 0.0942787 9.4135
1012 1 9.6336 2.0325 10.7291
2798 3 10.7594 1.6268 9.60233
2140 1 12.1744 1.58222 10.1692
2524 3 9.39987 2.02752 12.3308
2146 1 14.8196 1.83043 8.58355
62 2 13.6111 0.785369 9.54651
1948 1 14.3527 3.23516 11.2112
1125 1 16.925 3.18809 11.5412
1727 1 14.0753 -0.380478 10.6814
2922 3 15.5533 3.99108 11.689
1646 1 16.7053 -0.564113 10.4196
824 1 15.4961 -0.658133 12.6519
91 2 18.7874 1.23414 8.50807
1361 1 18.7755 2.2734 10.0467
2514 3 18.4444 2.98272 11.3798
1807 1 19.1008 2.46089 12.582
568 1 19.8095 -0.170468 9.34531
2315 1 19.8764 -0.16568 11.8717
2722 3 20.6638 -0.301257 10.6195
962 1 17.7069 0.428242 12.6666
1814 1 21.7848 0.900833 10.4818
2097 1 21.6529 3.45502 10.0535
1070 1 22.8861 2.44786 12.1204
2716 3 22.44 2.33443 10.5979
566 1 23.7508 2.12752 9.84153
983 1 24.8931 0.0267805 8.91231
1389 1 27.1845 1.67868 11.0463
2721 3 26.9358 2.76549 12.2542
2323 3 27.9814 0.280673 10.9502
1490 1 29.2491 0.391577 10.2674
473 1 28.2521 3.34 12.6843
681 1 26.1026 3.86614 11.4753
1224 1 28.0998 -0.181401 12.4808
552 1 30.6731 3.07001 10.0864
2169 1 33.0004 1.79106 12.301
2945 3 32.7712 3.28484 12.614
55 2 32.2681 0.213895 12.6531
1403 1 32.7342 4.17996 11.238
858 1 1.17045 5.34899 9.24094
153 4 1.42378 7.14145 10.7484
1459 1 1.60265 5.56104 12.6005
2675 3 7.62534 4.14133 8.62778
790 1 6.21798 4.76392 8.71061
1166 1 5.26199 7.07876 9.45564
1413 1 5.52636 7.5378 11.9491
440 1 7.40768 5.18113 11.6392
2560 3 4.86647 8.13432 10.5603
1769 1 8.20522 7.27126 10.279
2765 3 8.45958 5.87125 10.7895
471 1 8.68494 4.95126 9.47216
1050 1 11.4071 5.04884 9.66838
400 1 9.78635 5.66232 11.5461
2942 3 11.3641 5.5642 11.1221
344 1 11.7637 7.15466 10.9081
2035 1 12.1957 5.1502 12.2584
2700 3 12.8258 7.50264 9.79956
2004 1 16.4238 6.43576 8.78605
1243 1 14.3297 6.87965 10.1976
2983 3 15.8643 6.64736 10.1085
1311 1 16.0302 5.30202 10.9843
1076 1 16.403 7.84607 11.0366
1194 1 20.4245 7.86914 8.58746
1666 1 19.0425 4.4935 10.9683
2523 3 19.8234 5.66251 11.7783
854 1 19.3804 6.91307 11.0032
1993 1 21.357 5.51519 11.5477
44 2 22.2797 5.33135 10.0826
406 1 23.0674 7.09726 10.2323
1373 1 23.8963 4.74158 10.8122
2780 3 25.3395 5.06405 10.872
692 1 25.6518 6.29494 11.7421
657 1 25.9722 5.40489 9.44339
1956 1 30.332 4.89504 11.757
2854 3 26.8854 7.29279 12.0535
2288 1 27.9564 7.08685 11.0371
221 4 30.3232 7.22318 10.8719
2120 1 34.8188 8.00499 11.63
2858 3 31.1992 4.3273 10.6383
1314 1 31.2323 5.50583 9.59776
1669 1 32.3618 7.52957 12.0192
2876 3 0.557099 12.1721 8.70728
2291 1 3.38995 7.9595 10.86
1226 1 0.492739 8.50211 9.16158
1927 1 0.994483 11.6889 10.1326
671 1 3.16366 12.3003 11.1761
1556 1 5.51714 9.4667 10.1935
178 4 7.77562 9.25512 9.13783
168 4 5.09162 11.8033 10.2859
2279 1 6.16514 11.7983 12.2501
1251 1 8.28927 10.8346 10.9121
2707 3 9.16336 11.016 12.0902
797 1 10.4862 11.6453 11.8819
1002 1 9.36366 9.52013 12.782
1139 1 12.4172 11.0789 9.04216
198 4 11.6777 12.9247 10.1437
2566 3 15.882 8.45726 12.5381
1336 1 12.9668 9.02618 10.3564
448 1 14.8014 10.0457 8.98776
2931 3 13.517 10.3663 9.73753
2293 1 13.9572 11.2766 10.9509
37 2 15.7104 11.5334 11.4788
539 1 15.7809 9.98269 12.4383
951 1 15.5269 12.6896 12.7758
1152 1 17.317 11.1805 10.7635
1625 1 21.2766 11.8714 8.73071
61 2 19.8812 8.56185 10.295
2420 3 17.9375 11.052 9.42036
1248 1 18.7029 9.67778 9.43412
1257 1 19.0764 9.54441 11.9368
1712 1 18.7305 12.3748 9.20371
782 1 21.4708 9.0701 10.7353
2571 3 22.8693 8.50186 10.7268
1776 1 24.3824 11.3929 8.29452
695 1 23.596 8.80281 11.9859
465 1 23.634 9.40288 9.62493
2542 3 24.3865 10.7559 9.66735
1774 1 23.9293 11.5853 10.9108
531 1 25.9296 10.3733 10.0618
2403 3 27.1857 10.2764 9.10365
363 1 28.2193 9.70522 9.95725
249 4 28.2525 10.2216 12.2915
1167 1 29.7142 12.3115 9.53573
1668 1 26.4186 8.64528 12.4363
1931 1 31.5171 8.32363 9.41105
2622 3 33.5143 8.40066 12.1865
1085 1 30.626 10.3143 12.0678
2800 3 31.1473 11.9685 9.16425
1341 1 31.9842 11.865 10.5905
978 1 33.1714 9.87333 11.3593
2450 3 31.9535 10.8567 11.828
1122 1 32.6132 11.7736 12.9184
336 1 0.921614 13.1537 12.3145
2682 3 1.81612 12.8773 11.1471
641 1 1.9016 14.3521 10.5147
2541 3 0.911231 15.6225 10.8626
294 1 1.72991 16.9221 10.3382
1404 1 0.759363 15.738 12.3596
507 1 3.93286 16.2985 10.999
1347 1 -0.301127 15.5478 9.99542
2658 3 5.40059 15.6634 10.944
900 1 5.49933 14.2164 10.6315
719 1 5.62989 15.9748 12.571
1511 1 6.18421 16.6235 10.0539
2161 1 8.712 16.2521 10.0033
1916 1 10.8217 14.9651 9.51305
2779 3 10.1438 15.9923 10.4746
766 1 10.1688 15.5652 12.0019
608 1 11.9593 13.9595 12.4751
1834 1 13.5627 13.9581 9.1298
626 1 15.7822 13.1781 10.2894
2738 3 15.0274 14.0864 9.39152
2274 1 15.2611 15.5528 9.92844
2387 3 15.9872 16.1236 11.2425
1405 1 15.2969 15.2444 12.3313
358 1 20.2482 14.2879 8.43209
851 1 17.4883 15.9834 11.0592
217 4 19.6841 16.3008 11.752
1332 1 20.6223 16.9228 8.94865
741 1 20.0651 14.2816 12.7023
246 4 24.5308 12.9781 12.5035
989 1 25.0206 14.797 8.75306
2238 1 24.4636 14.876 11.3269
859 1 22.7405 15.0812 9.48978
2413 3 24.1111 15.4833 9.9806
834 1 24.4113 16.9886 10.068
266 4 25.8426 17.3571 11.9022
1307 1 28.5616 14.6553 9.5575
2824 3 28.847 15.9445 10.2462
1266 1 27.6754 16.6838 10.7756
321 1 29.8921 16.7331 9.15771
1565 1 29.8312 15.7904 11.5152
1298 1 31.8045 13.0138 8.38838
411 1 32.2381 15.5127 10.5454
2900 3 31.4814 16.0885 11.7035
487 1 0.638539 19.7455 9.00254
2632 3 3.2505 17.3596 10.0293
1679 1 3.49024 18.7693 10.2718
2143 1 0.539003 20.0775 12.3916
2584 3 -0.386247 21.3064 12.1644
1689 1 7.31895 18.3623 8.1339
232 4 4.3944 20.885 10.2383
49 2 7.64079 17.825 9.81157
2459 3 7.03136 19.4512 12.5372
2010 1 7.55966 18.6423 11.4123
1721 1 5.66265 20.0969 12.2079
760 1 8.08026 20.6961 12.6943
2184 1 11.9359 18.844 8.85247
1755 1 10.9665 17.4047 10.5987
977 1 9.28493 18.9265 9.45994
2817 3 10.7133 18.7482 9.8207
916 1 11.0125 19.8859 10.8671
2651 3 12.1305 20.1547 11.9939
1551 1 13.5118 19.5111 11.6105
2295 1 15.3093 17.4674 11.3869
620 1 15.2299 19.1358 8.971
107 2 15.0921 19.1434 10.819
923 1 16.1193 20.3057 11.6526
1053 1 21.6455 17.3895 12.5855
2866 3 20.5047 18.4388 9.30939
1245 1 20.019 18.7745 10.7293
125 4 20.3416 21.639 11.332
509 1 21.994 19.0095 9.05202
561 1 25.3108 19.6033 11.2207
2754 3 25.9522 20.6868 10.4481
2390 3 29.9153 18.1796 8.53875