ITEM: TIMESTEP
1610000
ITEM: NUMBER OF ATOMS
3001
ITEM: BOX BOUNDS pp pp pp
-3.9765784940393445e-01 3.4649957849396714e+01
-3.9765784940393445e-01 3.4649957849396714e+01
-3.9765784940393445e-01 3.4649957849396714e+01
ITEM: ATOMS id type x y z
2762 3 3.0006 0.382751 0.359918
596 1 0.499916 0.060372 3.33807
1731 1 2.60829 1.8236 0.17065
1714 1 2.74145 3.76762 3.92679
2691 3 0.503182 -0.378029 1.92968
1594 1 2.12901 4.31414 1.44247
20 2 2.65673 3.65604 -0.234239
555 1 4.37179 0.17817 0.91731
426 1 7.76608 1.93366 0.714335
2722 3 7.58545 0.518837 -0.0575312
2202 1 6.1588 -0.312887 3.34804
1453 1 9.18388 1.60152 2.88104
2521 3 9.08957 2.30879 1.58602
2271 1 10.302 2.2276 0.721159
1508 1 8.63637 3.8528 1.86644
2158 1 14.1758 2.65436 2.80703
2884 3 14.6864 3.3609 1.58969
2009 1 14.7495 2.35445 0.327651
1255 1 13.5715 0.417132 1.24205
2554 3 13.8539 1.19607 -0.142283
1776 1 16.0494 0.153873 2.08996
666 1 16.0362 4.03515 1.7581
233 4 18.6134 1.94945 1.8798
1832 1 17.9301 2.55819 -0.179777
1175 1 21.0977 2.58375 1.93891
1920 1 19.0846 0.327674 3.63333
2854 3 22.5645 2.52336 2.22874
1602 1 23.0539 1.32419 3.1576
1020 1 23.4023 2.43345 0.766368
1550 1 23.2096 3.90125 2.83281
1459 1 23.7518 0.228211 34.602
1697 1 25.9343 0.271003 1.93953
2663 3 27.1321 0.718914 2.66838
1292 1 28.6147 1.04819 1.82355
724 1 27.273 3.11409 0.841118
2586 3 29.7858 0.0786705 1.52835
2251 1 26.984 1.91926 3.63234
843 1 29.1767 3.13636 3.87979
2214 1 29.9773 0.0722556 -0.0576393
657 1 34.4543 0.292883 1.17306
1428 1 31.0057 0.622461 2.15395
158 4 32.9954 1.44921 2.35156
369 1 33.0737 3.30137 0.998152
1639 1 31.1926 3.97235 34.5588
2403 3 2.53958 4.76932 2.82932
798 1 1.59484 5.96057 3.27767
22 2 0.576528 7.32859 3.80552
2039 1 0.600702 8.41021 -0.136529
1271 1 0.406968 8.38452 2.41264
749 1 4.14323 5.48072 2.6597
2270 1 4.30722 4.42673 0.208309
1822 1 6.39545 4.92118 1.5519
2386 3 4.90274 5.40561 1.14645
2323 3 7.93082 5.01025 1.03709
2089 1 4.74483 6.83859 0.809102
1121 1 8.50379 6.2133 1.72352
67 2 3.92477 8.17106 0.14039
1800 1 7.99402 4.82303 -0.420639
45 2 9.27731 7.81408 1.32516
317 1 12.1853 6.18009 2.44256
1719 1 10.1794 7.86382 2.93655
2725 3 11.4164 7.16219 3.45545
1226 1 10.8475 7.63267 0.502123
2057 1 12.5187 8.182 3.86873
993 1 13.0464 6.58798 0.137177
808 1 13.5684 4.52696 1.30997
2835 3 13.4719 6.0567 1.57403
644 1 14.6478 6.67421 2.14441
979 1 16.3552 7.31785 0.154161
177 4 16.8747 6.04026 2.31704
2925 3 19.5896 7.61282 0.599917
1907 1 18.9738 6.41257 1.27056
1927 1 21.0293 7.09932 -0.0593734
1324 1 21.2542 5.38162 3.58161
2317 3 22.5213 6.88003 0.26057
2267 1 22.5577 5.64606 1.32274
2814 3 22.6597 5.40776 2.92028
907 1 23.5857 6.33347 3.67516
1297 1 23.1128 8.06865 1.15261
250 4 25.0811 8.39217 4.06631
540 1 26.0415 7.57767 1.67658
479 1 27.8331 5.85475 2.38089
2327 3 27.1412 6.75575 1.17222
1454 1 28.1378 7.72371 0.409327
1740 1 26.77 5.64824 0.0908646
2864 3 27.6804 5.88959 3.96567
2257 1 27.0229 4.38706 4.22385
2650 3 32.6356 4.36865 0.0874189
1749 1 30.7349 7.56316 1.04979
1503 1 30.8019 5.25044 2.39475
2655 3 31.471 6.4403 1.75974
371 1 32.5187 5.8056 0.820927
1151 1 32.4261 7.23407 2.83417
56 2 30.4025 4.60304 4.11777
2199 1 2.6053 8.61572 1.34436
2783 3 1.12907 8.91486 1.21288
2651 3 0.168614 11.8989 1.0638
1926 1 0.897146 10.514 1.25957
1393 1 0.256227 12.4986 2.55371
2228 1 1.52213 10.9986 3.89628
1675 1 0.90818 12.8437 0.208346
2244 1 3.47505 12.6377 3.76516
1652 1 5.46429 9.31123 0.667249
2774 3 6.88747 9.77424 0.921893
1967 1 6.93934 11.3463 1.30124
1984 1 7.80664 9.0276 1.85595
2134 1 4.9552 12.7074 0.377818
457 1 3.82191 10.0477 4.00875
1965 1 12.2311 10.4726 2.43413
240 4 11.0608 12.4518 1.75581
1684 1 10.2427 11.0389 -0.151414
1179 1 16.632 8.85079 2.65215
477 1 14.9658 10.1531 1.17808
978 1 16.1326 11.2819 3.06695
2961 3 15.574 9.81857 2.55807
8 2 15.0706 11.7576 0.156407
382 1 16.4335 12.8281 0.952212
563 1 14.3931 9.74641 3.67565
2758 3 17.0635 12.3351 2.25901
1344 1 19.7827 8.87278 1.36458
2104 1 18.4008 11.7813 1.81065
254 4 19.6781 9.6398 3.75924
265 1 21.79 10.4344 3.45345
2030 1 19.9933 11.9382 34.7682
1532 1 24.2116 10.0033 2.11631
2443 3 23.7799 9.48404 0.766286
1316 1 22.5282 9.95601 -0.0959504
1489 1 22.9546 12.5662 3.06029
1145 1 26.0459 12.3612 0.267419
169 4 26.7246 10.252 0.996837
1337 1 27.3678 9.59704 3.40077
1456 1 28.6003 11.2252 0.0458979
2023 1 29.7988 9.59767 4.13412
1279 1 33.6936 11.6616 0.688388
2080 1 31.9595 10.8326 2.43557
2471 3 32.1647 11.9248 1.41171
1641 1 31.268 11.5306 0.237293
2361 3 3.46298 15.6958 1.02887
849 1 2.64469 15.0881 -0.0873496
1905 1 3.87085 14.672 2.16125
1782 1 2.72508 16.8994 1.63481
2365 3 6.37731 12.8891 1.17185
613 1 6.28423 13.4739 2.52331
1736 1 5.01457 16.0728 0.573475
378 1 7.41125 13.4504 0.259898
197 4 7.19319 15.502 3.65856
2210 1 8.39887 15.5965 1.39471
375 1 9.41205 12.973 3.22168
2479 3 8.6966 14.5125 0.368653
679 1 9.8822 13.6713 0.353148
2094 1 12.2426 14.357 2.38024
514 1 13.8381 13.0335 0.894327
1595 1 13.9799 15.5872 1.07507
2538 3 13.6519 14.2088 1.95902
709 1 14.6764 14.0962 3.02025
2597 3 14.6085 17.0063 1.00142
403 1 15.9824 17.316 1.54757
2079 1 17.1755 13.5235 3.20014
32 2 19.8361 12.8299 1.37515
473 1 19.9817 13.3965 3.01335
1391 1 19.0015 14.2368 0.507112
2432 3 19.1832 15.7175 0.204489
1823 1 18.7341 16.6607 1.32828
2048 1 20.7604 15.9813 -0.0997189
1410 1 21.2317 16.9402 3.32847
955 1 21.6504 13.4513 1.13809
1814 1 24.1174 13.8131 1.27362
2460 3 22.8334 13.6119 2.01628
1630 1 22.6296 14.9675 2.91226
2712 3 22.7294 16.579 2.95967
2963 3 25.6349 13.8159 0.668713
1109 1 25.4601 16.8242 -0.0658469
2065 1 25.9572 17.1619 3.63462
1572 1 26.3434 14.7006 1.63087
242 4 27.8336 15.6976 3.50048
997 1 28.9854 15.6345 1.15737
2913 3 29.148 15.3517 -0.315252
851 1 29.5043 13.9217 3.81763
946 1 34.2245 15.7189 1.11777
1037 1 32.1589 13.3378 1.83793
212 4 32.7483 15.2547 2.94286
2930 3 34.4666 16.0738 -0.328199
437 1 31.5833 16.95 1.85986
124 2 3.02424 18.6333 1.82833
309 1 1.97731 19.0694 3.17717
653 1 1.98342 19.7609 0.732084
700 1 4.31376 18.4974 0.28138
715 1 -0.196931 17.6673 -0.410527
1258 1 4.521 19.2041 2.74364
2969 3 5.64143 19.0938 3.75926
2242 1 6.40591 17.8506 3.81933
935 1 6.61377 17.8456 34.8618
859 1 6.56284 20.3935 3.43014
1868 1 8.28643 20.3482 0.617802
180 4 8.85139 18.0927 -0.124394
2192 1 9.82778 18.142 2.03683
2921 3 10.0619 17.8995 3.46666
741 1 11.8003 18.0685 3.6515
1447 1 12.537 20.0498 2.13638
2034 1 13.0443 21.3118 0.00347128
1067 1 13.734 17.7491 2.20702
2685 3 12.9747 18.7771 3.05517
2336 3 16.1034 20.7426 2.63022
840 1 14.9564 20.7553 1.53023
2459 3 13.4089 21.234 1.42794
1798 1 16.732 19.4222 2.79437
1329 1 14.1634 17.5261 -0.357607
1207 1 18.3817 19.2771 0.74732
99 2 17.7598 18.1435 1.98661
332 1 18.9685 18.1943 3.39367
2280 1 21.2207 20.061 0.238642
2006 1 23.2987 17.1621 1.73678
245 4 25.4653 18.7123 1.33154
1436 1 23.5903 21.3979 2.14112
730 1 24.3329 19.0684 3.91977
420 1 26.1034 20.8982 2.09647
1945 1 27.8117 18.6049 0.572164
198 4 28.7115 20.9007 2.78293
1533 1 29.7542 18.6436 2.75083
380 1 30.3153 18.559 0.258268
2344 3 30.8409 18.2325 1.84644
909 1 31.9978 19.3727 1.80611
2911 3 32.097 20.8499 2.49973
1574 1 32.6438 20.6738 3.95683
811 1 33.3158 21.3985 1.69017
42 2 34.126 21.404 0.123981
1505 1 1.83443 24.4979 2.19861
2352 3 0.639573 25.3161 1.51929
2426 3 3.19768 24.8804 2.90794
1296 1 0.221839 24.3119 0.453196
866 1 3.68776 23.4535 3.34328
956 1 -0.487339 25.4189 2.70183
2001 1 4.1413 25.4309 1.81047
2547 3 6.54706 21.899 3.1958
805 1 5.77233 21.8581 1.84381
826 1 7.44743 22.769 0.229144
2907 3 5.87057 22.4006 0.219917
1119 1 4.9344 23.4567 0.089292
531 1 7.91884 22.5456 3.25103
2863 3 8.67332 21.7734 0.37097
2004 1 9.29933 25.1938 2.29665
80 2 9.4241 23.5042 2.86574
1195 1 9.68342 22.4723 1.27944
837 1 11.1006 22.9781 3.51608
2702 3 12.5584 22.9131 3.74997
1122 1 12.8782 25.2352 0.951844
1799 1 13.2264 22.5547 2.17374
1971 1 15.5159 24.5421 1.47507
2338 3 16.7935 24.9954 0.945918
1682 1 17.138 21.785 1.98363
1071 1 19.5908 22.2043 1.89892
1747 1 18.0312 23.9961 1.29994
2486 3 18.2801 22.8179 2.3248
2175 1 20.8241 25.7148 3.88618
1916 1 18.0663 23.2089 3.76503
234 4 21.7428 22.2376 1.00471
2612 3 24.9874 21.8376 2.48365
2294 1 22.9079 23.8999 1.45662
2373 3 24.3075 24.4057 1.53558
311 1 25.3603 23.327 2.05013
2258 1 24.7671 24.6057 -0.0850127
592 1 24.7757 25.6147 2.24113
539 1 25.1331 21.9563 4.18214
2110 1 28.7477 21.478 0.452656
1990 1 28.3727 23.1915 3.40406
2148 1 27.1021 25.3084 3.76694
2716 3 27.9693 24.1316 4.45827
1334 1 28.9546 23.9752 0.00552144
1942 1 30.8551 21.6849 2.49354
691 1 30.7953 25.4996 2.2948
1351 1 31.9609 24.3786 0.44981
848 1 1.06569 26.6966 1.29591
152 2 0.814792 28.5139 1.39924
1282 1 2.57196 28.9475 1.6939
1437 1 0.637354 28.2479 3.32522
431 1 3.06702 25.7356 4.08824
1204 1 0.81891 28.6437 34.6161
101 2 5.29441 26.5032 0.964683
628 1 7.02905 26.3921 1.5249
2526 3 3.98921 29.4821 1.54952
1524 1 4.92073 28.2184 1.50776
1787 1 8.8191 25.9453 -0.0959148
2553 3 8.57465 26.2963 1.4333
1919 1 9.14031 27.6178 1.86416
1587 1 11.9612 27.5425 1.19423
41 2 10.536 28.8455 1.92971
2136 1 11.4281 28.9783 3.49771
774 1 10.7397 29.6683 0.377574
2081 1 9.23539 30.1816 2.87534
2857 3 13.0994 26.6466 1.64169
1364 1 13.5788 26.6525 3.06188
1312 1 14.3892 27.2109 0.715631
383 1 16.6256 28.0442 3.55142
957 1 16.829 30.7424 -0.641075
874 1 17.1271 26.457 1.56004
2584 3 17.7686 27.1169 2.87288
348 1 18.9212 28.0313 2.75905
85 2 20.0461 29.7955 2.26943
1123 1 21.3693 28.9015 1.32049
1340 1 18.9382 30.0769 0.800229
295 1 21.0763 29.5092 3.82366
2823 3 22.7828 28.4382 1.41128
424 1 22.9292 27.3103 2.48723
2003 1 23.8157 29.4795 1.86868
1404 1 23.1002 27.8281 0.0188485
2785 3 25.4595 29.7477 1.38682
48 2 24.0088 26.6385 3.67384
1138 1 26.0738 29.805 2.76882
413 1 25.8816 28.6075 0.392144
1215 1 25.6092 27.197 3.83366
365 1 27.7185 26.3088 0.194373
2091 1 30.1604 29.4958 3.42059
1295 1 28.0589 27.6145 4.04842
2767 3 31.2739 25.7959 0.916191
2165 1 32.2882 26.9326 0.713219
2910 3 32.7171 28.1141 1.83482
2227 1 34.0779 28.4331 1.45834
296 1 32.3978 27.4789 3.16434
1779 1 31.7474 29.3354 1.47856
2738 3 30.5814 30.2888 2.19597
1289 1 1.99801 -0.344531 1.33083
286 1 0.443787 30.5362 1.38764
750 1 0.130509 33.0635 1.79123
2861 3 -0.476031 31.64 1.53731
1180 1 1.52449 32.4635 34.5356
670 1 6.97545 34.5388 0.905212
1396 1 4.57398 30.423 2.75751
1142 1 4.08131 32.9375 2.54831
568 1 3.99718 30.3993 0.168125
2551 3 4.24142 31.7791 3.54665
119 2 5.43567 33.9549 1.72085
560 1 5.62183 32.4977 0.310725
196 4 8.57263 34.4438 3.32233
1648 1 9.8576 33.3509 1.67077
2820 3 10.8104 33.0296 0.598837
1578 1 12.1924 32.3336 1.12933
2243 1 8.76739 32.4876 4.05997
2044 1 11.3851 34.2581 -0.219195
1390 1 10.1794 32.0865 -0.450252
2571 3 14.6915 -0.381349 2.28094
402 1 14.0517 34.4077 3.601
1898 1 13.3953 31.4159 2.88427
1818 1 14.1879 30.894 0.539215
2896 3 13.6607 31.9842 1.53262
1107 1 14.6898 33.1804 1.42602
1755 1 19.0821 34.8204 -0.280197
1619 1 17.3681 31.7724 1.58539
2071 1 18.7064 30.5239 3.33854
2788 3 17.909 31.1155 0.326822
2351 3 17.7218 31.7005 3.21533
1758 1 20.861 33.8336 2.9335
1048 1 20.9543 31.5072 2.17167
830 1 18.3941 33.1427 3.2844
2502 3 21.8742 32.5923 2.54697
2229 1 23.0315 32.9988 1.68375
211 4 24.8381 33.3708 0.156045
1921 1 25.5607 31.0729 0.648216
559 1 27.7072 -0.517021 3.52833
1332 1 29.6075 30.6998 1.16862
1355 1 29.5395 33.6771 2.08482
2646 3 28.1282 33.0978 2.83169
1124 1 27.2554 32.6889 1.69959
2064 1 28.6483 32.2854 3.93264
723 1 33.5802 31.7099 0.277808
1407 1 31.3285 31.6605 2.53239
284 1 33.7346 31.1304 2.73009
2848 3 32.4823 31.9222 3.58907
494 1 32.8578 33.3687 3.76738
206 4 2.25141 1.76202 5.10756
314 1 0.867549 0.605503 6.58406
2918 3 0.131636 0.876418 7.89991
624 1 0.29325 3.30113 5.5192
795 1 3.56284 2.03181 7.31537
1754 1 3.91368 0.425804 4.38658
2292 1 5.88294 1.91268 4.6214
2441 3 5.35673 0.303871 4.67248
2559 3 4.73292 2.81877 7.85203
2939 3 6.51876 3.14885 5.29468
1695 1 5.58657 3.4304 6.62794
433 1 7.908 2.73864 5.7686
2324 3 11.5226 1.35431 7.46306
151 2 9.21858 3.25377 6.94714
482 1 10.0969 1.78044 7.47884
591 1 11.553 -0.180076 8.01549
1679 1 11.9459 1.32862 6.00923
279 1 15.7195 3.02096 4.9803
258 4 14.1138 1.48926 4.88862
901 1 15.6369 0.56028 6.43636
530 1 17.4155 4.11522 6.17893
2363 3 17.0489 0.683949 6.89038
1263 1 18.0547 2.89928 3.89495
2401 3 17.1965 2.93629 5.11923
1161 1 17.8658 1.75342 6.02308
958 1 20.0795 0.448784 7.20714
1666 1 21.3009 0.715655 4.77361
2325 3 22.7779 0.774488 4.64505
1521 1 23.4286 1.65645 5.71218
2900 3 22.6836 2.75668 6.74632
704 1 23.9223 3.43349 7.33043
2187 1 22.1698 1.67343 7.81683
582 1 21.7485 3.49569 5.87464
2548 3 27.8115 3.05498 4.58097
2255 1 27.7054 2.5049 5.91636
204 4 29.1843 2.10887 7.7389
777 1 29.429 -0.0997965 7.82026
2717 3 34.3934 3.40531 6.66012
1702 1 -0.400056 2.39316 7.97362
1593 1 31.5809 3.20815 4.15796
1844 1 32.9612 1.12944 4.59246
1010 1 30.9327 1.61627 6.13357
2960 3 32.0773 2.2057 5.22707
1318 1 32.9106 3.1992 6.21317
1662 1 34.0202 -0.0552784 8.2323
1310 1 0.812529 6.70938 7.09307
2828 3 2.04875 7.3512 6.3021
554 1 3.2699 6.49621 6.03411
564 1 1.29989 8.06012 5.20722
2425 3 34.5539 6.30707 7.94263
1022 1 34.3236 4.81239 7.46474
2293 1 5.45 7.92025 3.7777
1287 1 6.47955 4.41664 4.50428
163 4 5.0448 6.04839 5.01791
1877 1 6.3128 6.50486 7.14142
1442 1 10.0917 4.74005 6.4095
1371 1 11.1002 6.20562 4.70781
2901 3 11.0572 5.89809 6.28085
1395 1 10.2282 7.13643 6.68576
945 1 12.3906 5.63608 6.94132
2670 3 10.3761 8.20507 7.94017
1612 1 15.5491 5.57611 7.0909
268 1 16.3496 6.17865 4.67995
2743 3 16.6518 5.5909 6.03222
221 4 14.0758 6.70897 8.31874
1061 1 18.7493 5.77639 3.74451
902 1 17.9225 6.51455 6.70171
2737 3 19.3152 6.14327 7.13498
2123 1 20.2574 5.70778 5.88582
2191 1 19.7726 7.57351 7.69117
579 1 19.5987 5.22956 8.27317
2631 3 20.0192 6.20925 4.25497
760 1 20.51 7.65275 4.23614
1100 1 24.144 7.35508 8.54052
2874 3 23.9313 8.5245 7.6291
205 4 24.6324 5.21991 8.34828
908 1 26.792 6.91067 4.57658
627 1 29.0939 5.90542 4.45572
1863 1 26.7244 5.96827 7.74287
614 1 28.3055 7.90588 7.60267
766 1 29.8972 4.19233 7.03027
2842 3 30.345 5.32118 7.98112
291 1 34.1722 6.73937 4.44232
2377 3 32.6521 6.84146 4.43478
2305 1 30.9601 6.51181 7.23637
796 1 31.8478 5.62774 4.75024
1155 1 33.5286 7.2384 7.58398
2063 1 32.3326 8.16878 5.26555
60 2 31.9599 8.21108 7.2455
1581 1 2.69987 8.61598 7.14868
2360 3 0.121474 11.8008 4.0519
2791 3 2.98168 11.3788 4.47178
1588 1 2.97943 11.3773 5.94214
159 4 1.97428 12.502 7.63372
895 1 0.303258 12.8761 5.07641
1168 1 4.33002 10.4226 8.03843
2444 3 4.18247 9.06946 7.44967
1670 1 5.02899 8.88919 6.08692
2826 3 5.14429 9.20942 4.51407
1249 1 6.26081 10.3302 4.3665
2807 3 7.75669 10.5574 5.03077
374 1 7.41682 10.2002 6.52746
966 1 7.91721 12.0657 5.05379
2992 3 8.33273 10.424 7.82037
2881 3 12.8086 9.93697 3.71851
1103 1 8.76928 9.66883 4.48604
1433 1 11.4897 9.09298 7.56403
220 4 11.7856 11.4222 7.05507
2068 1 9.45425 11.3565 7.70582
757 1 8.92416 8.8944 7.98486
941 1 12.4371 10.3559 5.10523
542 1 10.5353 12.9864 5.6268
1463 1 16.3608 11.1268 7.38886
2489 3 15.389 12.2288 6.91247
496 1 13.9304 12.0304 6.75061
2929 3 16.349 9.69765 8.18733
2138 1 15.2098 8.8796 7.69624
1434 1 18.8639 9.31586 5.9783
2988 3 19.16 9.03604 7.37849
990 1 18.9527 11.6616 4.73973
1987 1 17.8778 9.2589 8.28488
784 1 21.4001 12.4569 4.89266
896 1 20.1485 9.94315 8.07834
2424 3 22.5274 11.5276 4.22354
1705 1 24.4444 8.63888 6.2308
1478 1 23.5959 11.3814 5.18058
1403 1 22.3165 8.88398 7.62584
182 4 23.9271 12.3481 7.30008
536 1 22.1133 11.3498 8.14805
481 1 28.4158 11.6545 4.1898
2951 3 28.4193 10.0921 4.36622
2827 3 28.8793 9.34514 7.22522
1774 1 27.9942 9.79901 5.87714
2587 3 29.3833 12.822 4.83503
1435 1 30.3163 9.18583 6.79082
2086 1 28.5552 10.2446 8.34113
1374 1 26.187 12.7806 6.72582
2155 1 34.4857 11.8263 7.82127
1430 1 30.6282 12.1283 5.52183
1537 1 34.2126 10.6614 4.0563
223 4 31.8065 10.3835 4.57809
787 1 32.7378 9.97011 7.08023
2832 3 33.5047 10.7639 8.17364
125 2 3.66357 14.3947 3.80766
1230 1 2.23187 15.2017 4.40187
1307 1 0.868372 15.7759 6.45853
2686 3 1.0154 16.0838 4.97997
1388 1 3.41376 13.9042 6.70058
81 2 -0.261582 16.3476 7.6988
1710 1 -0.246509 16.1062 4.16717
1166 1 5.81534 13.143 6.77888
547 1 5.0284 14.7239 4.9243
2335 3 4.83007 14.217 6.38041
959 1 5.1283 15.6313 7.21847
2666 3 6.21463 16.7545 7.23332
2234 1 7.37434 16.7268 6.31383
2250 1 9.74161 16.6467 4.08847
2806 3 9.3404 13.1654 4.67098
862 1 8.64683 14.5298 5.06546
243 4 10.1076 15.5168 6.64561
557 1 12.4667 15.9228 6.09709
2029 1 16.1616 13.0294 5.82166
1854 1 15.6792 13.0348 8.3759
10 2 16.0137 14.2378 4.47346
1347 1 14.7632 15.3591 5.14854
2370 3 13.9231 15.8307 6.30878
681 1 14.0844 14.7496 7.52956
2440 3 19.8543 12.8027 4.44129
476 1 17.4462 15.4673 4.70765
452 1 19.5653 14.0923 5.3413
1303 1 18.5016 15.3705 6.98419
2419 3 18.6666 15.3731 5.54426
2076 1 19.596 16.6341 5.27852
984 1 23.5599 16.6446 4.2476
1635 1 23.7624 16.3769 7.52852
924 1 22.5894 14.2795 6.99409
2915 3 22.9236 15.1347 8.11598
1610 1 21.8378 15.9681 8.87663
2078 1 28.5339 13.3906 6.07291
1900 1 26.566 14.3671 4.71034
817 1 27.0789 15.2228 6.93429
2749 3 26.94 13.8956 6.11754
1930 1 28.9793 17.0325 5.0319
428 1 26.0644 17.3525 8.29852
1206 1 33.2231 16.0884 7.13901
1201 1 31.2351 14.7029 7.64328
2679 3 31.8029 15.7836 6.63837
755 1 31.7866 15.3064 5.28029
1129 1 31.0194 17.179 6.8707
1075 1 -0.211013 19.4676 4.08586
2575 3 1.30677 19.0538 4.51216
1520 1 1.37556 17.6397 5.14853
545 1 1.69002 20.018 5.61593
2056 1 3.59999 19.7847 7.20382
58 2 2.36696 21.1112 6.80326
513 1 -0.0859362 18.0982 8.14586
1302 1 1.1268 20.3602 8.37115
1425 1 5.32582 18.0331 6.97967
2671 3 4.91976 19.4605 6.60908
1501 1 4.84796 19.5323 5.06244
732 1 5.93182 20.3853 7.09885
97 2 7.43335 20.2886 8.11944
1861 1 8.33779 19.7579 6.53893
1753 1 9.56092 19.0742 4.46098
2840 3 9.68174 19.1695 6.02169
1273 1 10.1957 17.8923 6.62987
877 1 10.7933 20.3049 6.14765
2428 3 11.9287 20.6721 7.27135
1528 1 15.5345 21.2317 3.94696
1072 1 13.7679 19.2753 4.20357
1506 1 14.4743 17.1738 7.03268
2256 1 13.2488 20.1782 6.72291
1785 1 15.6639 19.2213 6.0388
2995 3 15.7225 18.1575 7.12636
102 2 14.3456 20.6282 5.31268
543 1 16.9774 17.307 7.13607
2557 3 20.1075 17.6216 4.19083
1746 1 20.9013 18.6582 4.96634
1484 1 19.9089 20.6929 5.83421
2932 3 21.4282 20.1854 5.42175
2987 3 18.9819 21.2051 6.95179
639 1 21.7944 21.0033 4.28614
1846 1 17.6795 21.8084 6.0944
2661 3 24.8041 17.7584 4.40762
2598 3 24.7744 17.5905 7.55113
1804 1 22.1694 19.9478 6.72993
532 1 24.1664 18.7791 8.25022
1073 1 25.036 17.6676 6.00959
1556 1 24.0633 21.4291 8.29006
977 1 28.6035 17.266 7.63612
2715 3 29.4602 17.6145 6.37821
1973 1 27.3546 20.7954 4.68067
1701 1 29.5337 19.2377 6.1556
2561 3 30.0347 20.5381 7.02546
1246 1 29.0113 20.6087 8.11396
1012 1 25.6002 21.4734 6.42726
417 1 30.1554 21.7084 6.15461
605 1 32.646 18.0796 4.3674
2894 3 33.3814 19.3519 4.58929
740 1 33.5149 19.8505 6.04945
2499 3 32.8677 20.7233 7.23787
867 1 31.4755 20.0412 7.60091
1400 1 0.866037 22.4637 6.36013
2872 3 0.743943 23.9762 6.38595
300 1 1.81819 24.9886 6.3671
2217 1 3.49738 22.0776 5.47499
2111 1 2.49361 22.4956 8.08954
685 1 -0.283221 24.4115 7.49768
2274 1 0.0509531 24.199 4.91454
2356 3 4.29583 23.1624 4.88568
1173 1 5.80533 22.6136 4.44462
448 1 4.53728 24.3551 5.7266
1006 1 7.98035 21.9705 8.15705
1079 1 8.2922 24.1574 7.0823
2566 3 8.62202 25.1749 5.89421
1514 1 9.15913 24.4113 4.74312
915 1 11.7724 22.0635 7.89973
2276 1 12.9669 21.7963 4.69083
334 1 13.3052 24.1458 4.19569
831 1 15.1509 22.1098 6.32693
2787 3 16.4915 22.7598 6.55584
1597 1 16.7354 24.1612 5.9725
1156 1 13.9372 24.8547 6.8248
2421 3 13.4373 24.6922 8.22032
131 2 18.1093 24.5661 4.83514
2052 1 19.6363 22.5988 7.39663
2195 1 19.3995 25.1306 6.01398
2859 3 20.6311 25.8156 5.36072
1493 1 17.8798 25.9802 3.91874
922 1 21.733 25.2529 6.32582
600 1 24.0807 25.2222 7.06208
2382 3 23.1559 24.5493 5.95361
2254 1 22.939 23.0791 6.12085
2849 3 25.4369 21.8835 8.03357
1488 1 23.7467 25.1449 4.74732
2266 1 25.6148 23.4987 8.21527
2760 3 24.7104 24.8396 8.46727
2593 3 26.3831 21.7955 5.12929
1845 1 26.8693 23.349 5.35362
269 1 29.1181 24.8338 5.16958
2390 3 34.1809 25.2871 4.2544
621 1 32.751 24.9088 4.46783
1914 1 30.4056 23.9605 7.85092
168 4 31.1461 23.6661 5.84677
1070 1 32.8415 22.1621 7.03246
2745 3 34.379 25.59 8.58815
94 2 3.26813 25.9863 5.83088
1577 1 3.69401 26.0824 7.60115
2817 3 0.757311 27.7893 4.75491
1707 1 2.01013 27.5537 5.53152
1622 1 0.683166 29.1899 7.92696
2461 3 0.500581 30.1127 6.77561
1542 1 0.153804 29.101 5.50087
878 1 -0.475492 26.6097 4.96071
2209 1 7.20858 25.7887 5.61615
275 1 4.97177 26.8998 5.64698
2692 3 6.32411 26.9668 6.34016
1717 1 7.0284 28.2752 5.53577
377 1 6.47849 27.1568 7.81369
2358 3 7.15653 29.679 6.14618
2060 1 8.52622 29.5013 6.97796
1187 1 9.61206 26.186 6.47379
665 1 11.9568 26.2737 5.48614
1325 1 10.5675 28.3438 5.84598
2766 3 11.0377 26.9967 6.48346
599 1 11.4641 27.0355 7.93407
2904 3 11.3132 29.4498 4.95055
1793 1 12.4683 29.9595 5.78271
95 2 13.5626 25.6784 4.89865
919 1 14.94 29.1352 5.04304
2895 3 15.797 27.9726 4.8722
2129 1 14.962 26.6893 4.97063
1531 1 15.4761 29.0399 7.67831
2797 3 16.82 28.5181 7.40769
842 1 16.9567 27.7901 6.02807
1251 1 20.5544 27.5628 5.69099
2124 1 17.8415 29.7523 7.39155
620 1 17.2846 27.4354 8.42345
2765 3 21.5987 28.6249 4.96301
1962 1 21.6207 28.416 8.35725
1472 1 21.7849 29.66 6.20603
1416 1 22.9315 27.9811 4.91207
2330 3 22.5098 29.3306 7.52657
342 1 23.9494 28.9285 7.54897
2718 3 26.8969 26.6861 4.53697
207 4 26.045 27.8674 7.86967
1764 1 26.7838 26.6957 6.08315
195 4 30.3397 26.9907 4.15991
2019 1 32.926 26.0037 7.91225
738 1 31.3834 26.6572 6.05166
2831 3 32.0017 27.1531 7.39237
397 1 32.6098 28.4909 7.46198
716 1 2.74542 31.5179 4.12846
387 1 1.89042 30.8571 6.49257
2539 3 2.19915 32.1897 5.59199
1545 1 3.31717 32.8058 6.37157
400 1 1.05721 33.0306 5.20851
2291 1 6.10318 -0.280183 5.81129
1996 1 7.70289 30.5565 4.96335
1539 1 6.12065 30.4748 6.8105
1721 1 5.23039 31.9985 4.57773
181 4 5.47923 32.672 6.95295
1728 1 7.76124 32.7121 6.83593
2953 3 8.99464 30.9873 4.08312
2841 3 8.83754 32.8557 7.89387
1480 1 10.2427 30.6608 5.09844
2379 3 11.6556 33.3254 7.56413
504 1 10.1887 32.9173 6.94287
897 1 16.468 31.6277 4.08022
1954 1 12.665 32.9806 6.5508
215 4 14.229 31.3715 5.11865
1144 1 15.1016 31.7218 7.37228
2727 3 19.6072 34 3.9301
1111 1 17.7393 34.3403 6.77712
1320 1 19.8912 33.611 5.37942
106 2 19.5068 33.6568 7.34847
1833 1 18.8074 31.9543 7.44149
1783 1 21.2554 33.0585 7.50918
2729 3 18.2489 30.9419 8.34743
1216 1 22.4416 32.3436 4.05349
1803 1 25.006 32.311 4.52467
1986 1 23.517 34.452 4.65598
2505 3 23.6481 32.78 4.85371
2107 1 23.3816 32.4841 6.3511
2624 3 22.5492 32.372 7.70786
1025 1 22.3466 30.8169 8.06792
193 4 27.7423 29.9565 4.18102
2109 1 29.8699 30.4059 7.60237
2069 1 27.4563 30.3742 6.64664
2392 3 28.4657 30.9308 7.62485
813 1 28.553 32.563 7.45132
2985 3 29.7869 33.5056 8.02189
1059 1 34.4986 31.1488 6.75945
253 4 32.1291 30.8494 7.26332
246 4 34.3476 34.4493 5.21704
1813 1 32.1991 31.1642 4.81146
1867 1 31.1688 33.0209 7.7184
1817 1 1.1161 0.951706 9.11909
933 1 3.24718 1.07985 10.2965
2906 3 1.91354 1.83587 10.1357
1791 1 1.14171 1.637 11.5496
1571 1 1.9023 3.26663 9.79407
2397 3 -0.272741 1.12225 11.9694
1494 1 5.735 2.21512 8.86838
1139 1 7.74638 1.0967 9.70243
2786 3 7.24342 2.43792 9.38178
930 1 6.925 3.29681 10.6939
1891 1 5.19698 34.5221 10.448
1245 1 8.0607 3.27633 8.38034
1573 1 12.2932 2.14385 8.42919
2540 3 10.2677 2.47547 11.623
834 1 9.75629 1.24722 10.9513
971 1 11.0136 3.43245 10.7055
2190 1 8.97278 3.15377 12.2754
96 2 8.92369 -0.472774 10.6069
281 1 9.08538 -0.480917 12.7652
1561 1 13.2941 1.9769 11.9098
783 1 15.317 2.18526 9.67341
247 4 13.2419 3.29788 9.93953
2978 3 16.7847 2.12606 9.53892
1242 1 17.3279 1.11415 8.46489
415 1 17.4559 1.63713 10.916
2497 3 20.6759 1.3473 8.34416
2169 1 19.8538 2.47586 8.68992
2945 3 17.5335 0.357364 11.7927
2273 1 17.4061 3.5081 9.31938
289 1 20.8321 0.522499 9.74243
2645 3 20.8229 3.54946 12.2021
2170 1 19.1424 -0.201058 11.5463
306 1 19.7644 3.67487 11.1134
1703 1 21.5947 2.20866 12.3443
2512 3 25.3683 0.325031 11.7912
761 1 25.6515 1.44345 10.6972
2769 3 26.4975 2.68185 10.2641
1647 1 27.5033 2.21494 9.27038
1380 1 29.1483 1.05601 11.8492
883 1 27.2945 3.04762 11.6548
1313 1 26.761 -0.325892 12.2574
111 2 28.4464 34.6298 12.7089
1535 1 30.5643 2.27598 9.86054
1402 1 34.4842 -0.265134 11.4459
2994 3 30.4167 1.41989 11.0979
1756 1 33.769 2.37171 11.3335
2964 3 32.6827 2.88815 12.4058
606 1 31.482 1.80105 12.2782
1397 1 31.0936 -0.0342166 10.5574
2279 1 2.83704 6.07224 9.50437
107 2 1.27353 6.74143 10.281
885 1 1.21457 6.06705 11.7843
839 1 -0.0475844 6.13776 9.36588
2968 3 7.74769 4.07303 11.7427
1789 1 4.07765 4.70916 11.2405
2339 3 6.19778 7.03098 8.59026
680 1 4.02343 4.06623 8.59669
2507 3 4.06045 5.14965 9.79487
2035 1 5.33782 5.89459 9.39897
1058 1 7.30462 7.5329 9.46307
1227 1 4.96601 8.17685 8.43824
1911 1 8.24767 5.22559 10.8999
1330 1 10.5112 7.2331 9.12639
214 4 9.2092 7.15488 11.1583
768 1 11.0988 6.41145 11.9036
2869 3 12.5308 6.06083 11.696
773 1 13.0943 5.68348 10.3181
799 1 15.7773 6.51855 10.1861
2215 1 13.3519 7.45299 12.0649
1213 1 16.9713 5.87817 12.4271
2781 3 17.0252 6.52718 10.9401
1495 1 17.4353 8.05162 11.2386
73 2 19.0133 4.14156 9.52164
1130 1 18.1944 5.78546 10.257
2777 3 20.9897 7.56324 12.3207
283 1 21.4666 6.63483 11.0981
1875 1 19.7783 8.14853 11.4224
1000 1 22.1964 4.52412 12.1236
2020 1 22.3776 4.99044 9.57959
2983 3 22.653 5.55025 10.9885
601 1 23.9964 6.23712 11.2818
472 1 25.6501 3.97617 9.98192
2488 3 27.6947 6.74803 8.58473
203 4 25.9139 7.10096 11.9873
692 1 29.025 5.89227 8.97763
2773 3 28.0733 4.19428 12.3736
913 1 29.3288 4.41589 11.5332
521 1 27.0871 7.33935 9.86417
1064 1 32.1239 4.19097 11.776
1909 1 31.3035 4.89078 9.09662
2100 1 31.108 6.8527 10.949
112 2 30.8982 5.09113 10.8564
1275 1 31.6998 8.48728 9.00393
2952 3 30.9629 8.28647 10.3105
1431 1 1.05457 8.46073 10.085
1422 1 1.57229 10.8219 8.93478
2986 3 0.705392 9.94576 9.83312
1554 1 0.436228 10.7106 11.1725
2436 3 0.143751 10.6921 12.7712
1589 1 7.3563 10.4562 8.89329
2222 1 4.2589 11.4571 11.254
160 4 5.62079 11.9577 8.9681
937 1 7.93654 11.8053 11.7541
2519 3 4.22823 12.2109 12.584
1014 1 11.7975 9.27618 11.1371
2919 3 12.9445 8.93625 12.0234
389 1 13.9971 11.3157 9.53532
320 1 16.1462 9.92428 9.78473
2642 3 14.853 10.7514 10.6079
1381 1 14.32 9.71632 11.6791
891 1 15.7816 11.6453 11.5036
2476 3 18.4443 8.91994 11.9826
38 2 17.4951 11.739 11.9466
2268 1 18.3049 10.2736 11.3053
432 1 24.7434 9.82054 8.27803
1950 1 21.3495 11.3432 11.8532
1750 1 21.9114 8.67618 12.5377
2568 3 21.6725 10.0588 8.6284
1915 1 21.6679 9.70475 10.1086
1164 1 24.7839 12.0318 9.53593
1196 1 24.0552 9.68339 10.7588
66 2 22.5953 10.1493 11.8111
2703 3 25.0389 10.4636 9.82062
1057 1 29.538 8.75808 10.4167
1101 1 26.5356 10.2048 10.1775
86 2 28.4409 10.6601 10.2124
1975 1 28.6706 10.7441 12.1469
1646 1 27.8496 12.3882 10.1162
2219 1 30.238 11.1457 10.1026
1509 1 34.2715 9.79327 9.18325
1236 1 31.8918 9.32181 11.2977
580 1 32.3119 11.3283 9.07734
2980 3 31.5238 11.9307 10.2314
688 1 32.2081 12.0817 11.5281
888 1 33.8069 9.8865 12.6985
2446 3 32.2902 9.54189 12.7392
1359 1 2.15197 15.1869 10.6469
2946 3 0.651524 15.5129 10.5727
2012 1 0.201511 15.3019 9.15167
2890 3 3.50348 14.3119 10.6168
869 1 -0.0605629 14.8472 11.7473
1887 1 3.52018 13.6339 12.0905
1498 1 0.782809 17.1384 10.7694
360 1 3.16394 13.2445 9.60435
1406 1 7.67118 13.0688 9.52688
1008 1 4.75093 15.0786 10.5815
200 4 6.59113 16.2103 10.9472
713 1 7.88573 14.4545 11.5994
725 1 6.58551 16.6526 8.69088
2389 3 8.36952 13.2128 10.8685
1068 1 11.6137 12.766 8.87011
1807 1 10.4956 14.8531 8.89324
1133 1 9.9451 13.2742 10.9481
1841 1 12.0803 14.411 10.8081
2711 3 11.1085 13.8396 9.77664
1114 1 12.0851 16.9471 11.2223
1865 1 16.3184 15.4016 8.49979
2948 3 15.1444 14.4648 8.66967
1880 1 14.3917 14.4807 9.98368
105 2 13.5427 15.8061 10.9811
938 1 14.0981 15.1256 12.5474
1197 1 16.4268 15.9605 12.3747
1056 1 18.1032 13.1346 11.1573
69 2 17.9597 16.23 8.44685
611 1 20.5221 13.5404 10.6166
1128 1 18.7577 14.9122 9.56758
2704 3 19.0871 14.2799 10.9264
2119 1 19.3577 15.3378 12.0487
353 1 21.1302 16.9348 10.9472
2709 3 21.4693 12.9672 11.7822
1948 1 22.938 13.222 11.4108
612 1 23.6424 14.2616 9.13741
55 2 24.4765 13.6731 10.557
667 1 24.6539 15.546 11.2081
1586 1 25.8733 13.3369 11.492
89 2 27.4972 15.9168 8.61407
379 1 29.1779 14.7844 9.0523
942 1 26.5827 14.5461 9.47328
2875 3 27.1567 13.6013 10.5428
2022 1 27.9933 14.6217 11.4901
2693 3 29.099 14.7885 12.6324
1879 1 30.0645 15.9316 12.1536
1626 1 29.7168 13.3556 12.6968
483 1 31.2476 13.4409 9.59508
2493 3 30.7234 14.7962 9.15309
2025 1 31.5244 15.8772 9.84418
51 2 31.5173 16.8634 11.3977
2687 3 -0.00116142 19.4639 8.78238
566 1 -0.194099 19.3762 10.3499
1349 1 -0.0705197 18.4641 12.6802
2236 1 2.65033 19.1343 12.665
2456 3 -0.433065 18.0523 11.2795
1999 1 6.33591 19.8927 9.62325
2764 3 6.15207 20.7211 10.8649
1188 1 4.76146 20.124 11.528
703 1 7.18014 20.0607 11.9354
1234 1 11.5153 19.6287 8.38539
797 1 8.92291 19.4841 8.87397
2634 3 11.7539 18.4156 11.6191
2466 3 10.2246 19.8243 9.49864
1040 1 10.4788 18.6813 10.6001
2046 1 10.3884 21.2279 9.9577
1352 1 8.42338 17.4945 12.433
1671 1 14.5745 17.1099 10.3551
490 1 12.7502 19.5845 11.5169
2018 1 15.4441 18.8589 8.57728
2435 3 15.7994 17.9646 9.98892
35 2 16.0427 20.8438 11.5392
1738 1 15.8403 19.1679 10.9712
931 1 18.6353 20.1885 7.96454
1306 1 17.2281 17.3442 9.82904
2977 3 21.0422 17.2718 9.3316
1715 1 19.6179 17.272 8.80666
327 1 21.0645 21.2167 8.89266
515 1 21.1695 18.4696 12.8544
12 2 22.8809 20.028 8.49534
2564 3 21.8236 17.2045 12.3444
2617 3 24.8616 16.7379 12.0216
1039 1 21.7263 18.6023 9.07242
411 1 23.0293 20.2521 10.3968
2049 1 23.3183 17.4083 12.026
2105 1 25.6748 17.8462 11.2887
2689 3 23.2625 21.4023 11.3505
1319 1 22.9063 20.6579 12.7291
647 1 27.9287 16.9677 10.1954
2410 3 27.2817 18.1909 10.8377