ITEM: TIMESTEP
1610000
ITEM: NUMBER OF ATOMS
2999
ITEM: BOX BOUNDS pp pp pp
-4.3763194565345742e-01 3.5350931945650480e+01
-4.3763194565345742e-01 3.5350931945650480e+01
-4.3763194565345742e-01 3.5350931945650480e+01
ITEM: ATOMS id type x y z
1823 1 3.10674 3.04718 2.68237
236 3 2.58005 0.568567 1.19954
1622 1 2.56608 3.18609 0.228421
470 1 0.140893 -0.0695346 1.02494
2547 2 3.2366 3.84995 1.39032
1980 1 -0.0337942 1.96681 2.43141
2425 2 6.23788 0.659767 1.42135
1691 1 4.77659 0.409646 1.42274
580 1 6.93951 0.367042 2.77676
1035 1 6.61547 2.29007 1.28833
1306 1 5.80557 3.79017 3.35933
2787 2 6.13653 3.65026 1.93481
376 1 7.02692 0.130578 0.308101
1287 1 12.0542 1.21177 0.845774
808 1 10.6333 3.74044 0.12804
1213 1 11.1985 3.83978 2.60755
1714 1 13.0682 3.50083 0.905905
2913 2 11.5903 0.518624 35.1556
2775 2 13.4456 1.90527 0.979214
1413 1 13.7967 1.55661 2.48971
530 1 14.5615 1.60973 -0.0128271
2257 1 16.501 0.691387 1.77386
137 3 16.9629 2.17905 0.222955
1836 1 15.0783 -0.319647 3.72745
2713 2 16.5089 35.45 2.81642
2707 2 14.0263 0.81841 3.86647
64 3 20.6877 2.35397 1.68878
1499 1 19.8252 0.70035 2.71502
1382 1 18.1633 3.29509 1.95176
1259 1 22.5538 1.43744 1.14502
368 1 24.9436 1.03745 1.82356
2537 2 23.8016 0.92089 0.541279
2535 2 25.7992 2.20046 2.38303
1936 1 25.1068 3.27557 3.18866
256 1 26.4891 1.31489 3.55316
1393 1 26.8737 2.59458 1.45075
548 1 29.7194 2.79037 2.14146
191 3 30.5791 -0.219522 3.04909
2394 2 29.3227 3.98359 2.89509
970 1 28.2864 3.79553 3.93188
46 3 30.5065 2.72298 -0.209583
2859 2 35.0361 0.700672 2.00036
968 1 31.2402 0.689872 0.874606
2316 2 32.6459 0.496176 0.305525
1516 1 33.5445 1.09131 1.61629
1346 1 34.8256 -0.126216 3.27485
520 1 32.5212 0.686992 4.24595
121 3 0.339665 4.20653 1.94945
990 1 2.76807 5.30508 1.65184
2763 2 35.3052 6.595 -0.248671
1304 1 -0.173982 6.50346 1.29758
2181 1 3.21979 7.96652 0.366507
1791 1 4.87194 4.03052 1.0531
202 3 3.94455 7.22501 2.32585
1748 1 7.29936 4.6047 1.61346
2904 2 7.39439 6.22021 2.13513
888 1 6.02312 6.6773 2.22874
1973 1 8.17935 6.96629 0.906295
568 1 8.29078 6.36531 3.29859
2670 2 11.6052 4.15183 1.10413
1497 1 11.9182 5.70345 1.21121
878 1 13.1123 7.60164 -0.150421
2103 1 12.9773 7.84744 2.30941
2991 2 13.086 6.85573 1.25868
436 1 15.9594 4.37012 0.189327
731 1 14.3215 5.88782 1.33145
2729 2 15.8908 5.73616 0.744112
1674 1 16.6933 5.50883 2.07048
1751 1 16.2176 7.01852 0.0550918
2959 2 18.0698 4.71138 2.43513
1511 1 19.1333 5.64553 1.97107
111 3 20.148 7.62343 2.46919
1171 1 22.2405 7.06674 1.4022
2134 1 22.356 4.40835 1.70285
2169 1 24.5705 5.89816 1.52706
2619 2 22.8541 5.7301 1.10021
2803 2 25.759 6.87464 1.13475
977 1 25.47 8.14674 0.45671
1490 1 26.4461 7.34889 2.48111
1440 1 26.9315 5.87901 0.549619
462 1 28.9091 5.25642 2.03227
2521 2 28.5824 5.94973 0.63084
971 1 28.8972 7.42379 0.811539
1043 1 30.7705 4.60653 3.52493
851 1 32.0428 4.39918 0.436778
1470 1 32.8762 6.35663 1.83542
2946 2 32.4249 7.47383 2.84017
2786 2 32.4392 5.82646 0.313774
734 1 33.7125 8.23041 3.35913
959 1 31.3895 8.4084 2.36498
533 1 33.7236 6.08565 -0.554832
2285 2 1.63189 12.3951 3.23224
513 1 1.24496 11.8366 1.91601
227 3 1.11229 11.9765 -0.374443
1308 1 5.04295 9.19999 2.05067
1573 1 4.53264 11.6502 1.45576
2933 2 5.40513 10.2359 1.05848
2526 2 4.58794 12.3552 2.87116
1774 1 6.84558 10.529 0.684801
2009 1 7.68152 12.5607 3.67036
719 1 5.03121 11.331 3.89512
1453 1 9.02674 9.53413 2.93213
73 3 9.02234 9.95623 0.545928
2668 2 11.4227 11.6332 2.43102
2258 1 10.4928 11.4306 1.30635
2248 1 11.2783 10.6278 3.62581
1740 1 12.8988 11.6576 2.16076
5 3 14.2117 12.4469 0.449305
2643 2 16.3539 12.6441 3.21387
2221 1 16.9967 11.2998 2.51503
625 1 13.6978 10.2184 -0.189247
833 1 15.4857 13.2535 2.17002
1581 1 18.6554 9.53832 1.65662
2317 2 18.5078 11.0331 2.05557
1679 1 19.0554 12.1793 1.2467
2213 1 19.3677 10.9644 3.50824
1238 1 21.5554 9.36623 2.46388
296 1 21.5636 12.612 -0.298784
1991 1 21.9927 10.1325 -0.341776
1269 1 22.9981 11.3979 1.57212
2372 2 22.5066 10.4653 2.80758
2427 2 22.5506 11.5749 -0.00792285
2044 1 25.7452 10.4609 1.89756
2784 2 25.4437 10.3275 3.36389
27 3 25.8494 10.3919 -0.459579
1084 1 23.8264 10.0425 3.54752
518 1 26.1123 12.676 0.236465
198 3 30.7979 9.01393 0.272971
2667 2 29.0922 11.82 1.33377
1620 1 29.1345 10.5306 0.691878
2099 1 28.3563 12.1106 2.63478
1986 1 28.6142 12.9739 0.305064
569 1 34.9896 9.69187 1.64498
334 1 34.9823 10.6357 35.1675
410 1 30.6871 12.2373 1.45412
1721 1 33.0489 8.95465 0.143106
2449 2 34.8457 9.3336 3.13219
2934 2 34.4774 9.39482 0.160383
983 1 34.0736 10.6649 3.70846
419 1 3.22739 13.0526 2.97427
308 1 1.85475 16.9567 1.02375
1148 1 0.830375 16.2346 3.17329
2417 2 1.15323 15.8115 0.192231
800 1 1.80077 14.4562 0.35841
2835 2 1.94122 17.2755 2.6582
1602 1 0.729709 13.8387 3.40507
614 1 3.28698 17.0742 3.17264
2811 2 7.10633 13.6558 2.93064
1215 1 5.51089 13.6066 2.73194
1811 1 7.522 15.1051 3.19994
2936 2 7.72016 14.3231 0.161238
514 1 7.61899 13.383 1.39898
564 1 10.9393 13.0608 3.0125
1636 1 8.56443 15.4918 0.512757
2020 1 11.621 15.9716 0.952156
929 1 9.6565 16.6081 3.34229
2725 2 12.5366 15.4212 -0.0605908
1826 1 12.6955 13.9746 -0.275082
1906 1 13.9893 16.0978 0.279848
2887 2 20.9 16.6277 1.47605
886 1 21.2804 15.4353 2.49555
2498 2 20.4195 14.9135 3.67343
536 1 20.2202 13.4216 3.31247
255 1 20.0345 15.9837 0.445886
234 3 19.632 13.6988 35.3444
1783 1 22.2832 16.779 0.740198
2117 1 24.7755 16.9767 1.46187
1556 1 27.1649 14.5218 1.69567
2711 2 27.1642 13.6984 0.432174
369 1 29.4375 16.6445 2.16759
2753 2 30.3086 15.6278 2.72721
554 1 29.8791 14.7123 3.82692
59 3 27.1129 17.106 1.973
1655 1 30.8549 14.7395 1.32844
1058 1 26.2397 16.2307 4.15917
1690 1 32.9875 13.2312 1.89055
683 1 35.37 15.8673 0.443377
2318 2 31.6898 13.4446 1.20054
1373 1 31.7178 16.424 3.20419
1831 1 32.9706 16.5427 0.873789
2462 2 34.2446 16.839 -0.0960464
2914 2 32.697 17.2649 2.31269
694 1 1.28725 18.6227 2.7373
1702 1 -0.296873 20.8902 0.408652
307 1 3.49267 20.3365 0.606847
881 1 4.37955 20.8511 2.94756
1667 1 5.80649 19.5003 1.45319
2902 2 6.91586 19.2348 2.63216
2573 2 4.66187 20.628 1.50218
1807 1 7.54501 20.6762 3.04008
2107 1 7.95008 18.4024 1.94412
864 1 6.23149 18.8083 3.87185
123 3 9.7851 17.4241 1.12903
2467 2 8.78856 21.4041 3.6831
1628 1 11.3271 18.9256 2.69527
2636 2 11.2807 20.4085 2.80449
1666 1 11.8748 21.082 1.39365
484 1 9.84321 21.2019 2.61082
298 1 11.8288 20.8552 4.17883
1625 1 15.2841 17.2518 2.0732
2297 2 14.7741 17.3846 0.563094
1785 1 17.1019 17.67 3.6905
2862 2 16.1169 21.191 1.65831
1327 1 16.4178 19.7262 2.33869
2647 2 15.8931 18.3478 3.12212
507 1 16.2007 21.0562 0.166998
2155 1 13.8015 18.6062 0.392089
366 1 14.4498 21.4925 1.97673
2679 2 13.2316 21.7963 0.914614
1853 1 15.9531 17.5653 35.4246
1268 1 20.5271 17.843 2.28922
2380 2 20.592 21.3858 2.58933
1456 1 19.7511 21.4585 1.20574
1917 1 20.0906 20.5143 3.65962
2774 2 19.663 20.5615 -0.237726
1347 1 19.0476 19.1882 -0.0659529
2903 2 23.6172 17.6482 0.945069
1890 1 22.0452 21.0294 2.10438
2165 1 22.9821 18.8687 1.8467
2395 2 23.3835 20.2545 2.37715
1818 1 24.2682 20.9763 1.24034
2485 2 25.8174 20.7131 0.873004
1179 1 23.8723 20.2311 3.76311
723 1 25.8811 20.7047 35.0736
725 1 26.3619 19.5415 1.64146
1961 1 28.1631 19.7731 3.86254
270 1 30.3806 20.3004 2.75161
1653 1 29.2373 21.9548 4.18637
35 3 35.146 19.6912 2.35792
849 1 33.8289 17.7204 3.03904
666 1 34.5067 18.2923 0.245835
2240 1 31.9034 21.0704 1.02771
2883 2 31.8751 20.1128 2.18184
2259 1 31.9579 18.5958 1.80024
853 1 33.0377 20.3951 3.1976
1574 1 0.311572 24.9273 2.95025
1358 1 2.37169 23.3498 3.31528
2520 2 0.91731 23.6637 3.69776
989 1 0.0251722 22.5109 3.97877
14 3 3.06072 25.4659 -0.298471
1506 1 5.56642 21.8785 1.00297
2628 2 5.85021 23.3937 1.18235
1639 1 6.19583 23.5775 2.64936
2090 1 7.28901 23.4248 0.383947
2371 2 8.06522 24.8015 0.209934
1076 1 4.75953 24.1705 0.612798
1231 1 8.1564 25.4587 1.50667
2208 1 8.44526 22.8569 3.8616
155 3 7.81986 24.9443 3.776
2693 2 11.7049 25.603 3.65979
1264 1 9.46642 24.4334 35.4927
2202 1 10.7626 26.4644 2.91573
976 1 12.8765 23.3983 1.14423
1725 1 13.0087 25.2862 2.70437
1741 1 12.9603 25.6959 0.324767
624 1 16.9005 22.2571 2.2626
2599 2 13.5534 24.8058 1.38243
648 1 15.0385 24.6916 1.3035
98 3 17.1109 24.6017 2.18442
2893 2 21.1544 24.4164 2.61157
1858 1 20.7169 25.1057 1.3637
1466 1 20.5716 22.8977 2.97916
1664 1 20.9165 25.2196 3.99622
938 1 22.733 24.208 2.56722
866 1 24.8835 25.396 2.38375
2899 2 23.9779 24.8107 3.38437
177 3 25.185 26.2945 0.0216116
716 1 23.3068 25.7695 4.46178
1207 1 26.4151 22.1783 1.26929
1540 1 28.8211 22.6764 0.363974
1315 1 26.9308 24.6275 0.608762
2800 2 27.3245 23.1678 0.347361
57 3 27.2826 25.93 2.70695
813 1 28.4713 24.0789 3.17342
829 1 32.0389 24.0071 1.94982
2967 2 32.2393 24.1905 3.44007
164 3 31.3401 23.0374 0.0385497
2705 2 34.685 25.8813 2.90832
1754 1 33.7018 24.8248 3.64337
726 1 31.097 25.2981 3.89438
2189 1 2.64517 28.8884 1.01111
1320 1 3.06737 28.6075 3.55436
2832 2 3.49569 28.0607 2.22045
2196 1 35.404 28.7238 0.408985
2511 2 2.75112 29.6136 -0.408897
541 1 3.46881 26.6799 1.6814
1747 1 5.02166 28.8119 1.90663
2844 2 5.33677 30.3606 1.96448
1377 1 6.409 30.6726 3.09003
76 3 10.2623 28.4984 2.08873
1861 1 12.735 28.407 2.13729
1962 1 10.493 28.1513 -0.105808
1504 1 10.6854 30.8027 1.65932
2608 2 13.8466 29.3131 2.76533
837 1 14.5577 30.0229 1.44922
2007 1 17.0244 28.9637 1.12669
2393 2 16.2297 30.349 1.42934
1029 1 16.7046 30.8245 2.78265
263 1 18.0921 28.378 3.52877
1070 1 18.3156 26.8718 1.37848
2629 2 18.1958 28.2567 2.05367
794 1 19.4737 29.1179 1.6223
2880 2 20.4324 29.2535 0.340382
392 1 20.4289 30.6893 -0.155792
1549 1 21.8268 28.9613 0.985743
2982 2 23.3312 29.2451 1.50093
1054 1 24.0296 27.9506 1.8942
494 1 23.2562 30.342 2.46904
2267 1 23.9722 29.8459 0.202833
1225 1 26.5153 30.2156 0.645968
1964 1 29.4322 26.7143 2.57301
268 1 26.9335 27.7462 0.997833
2327 2 27.6186 29.0714 0.853337
1153 1 28.2677 29.5747 2.264
2576 2 30.7168 26.805 3.38284
2161 1 29.4372 30.2417 4.24774
2669 2 29.2036 30.8129 2.76804
1709 1 30.433 27.3915 4.83608
524 1 34.4003 26.2151 1.52338
1925 1 31.8762 27.5219 2.80665
205 3 33.2456 28.5697 1.2865
714 1 34.0574 30.17 2.95031
752 1 34.817 27.0811 3.76331
810 1 2.28767 34.934 2.97395
314 1 2.73763 31.1947 0.0309999
1576 1 1.73143 31.9979 2.182
2548 2 2.99929 31.9758 1.37601
2635 2 0.793249 31.9756 3.5645
1284 1 3.76764 33.2211 1.01507
556 1 3.96005 31.0785 2.41275
1332 1 0.814831 30.5367 4.04187
1468 1 5.73305 30.9692 0.678314
1050 1 6.50814 33.679 2.49647
2754 2 6.99862 34.6834 3.46821
222 3 6.06712 33.3173 0.362612
570 1 9.8518 33.3164 1.79743
2510 2 10.5471 32.1822 1.14986
1059 1 12.0729 32.528 0.735913
1385 1 12.6395 34.7086 2.14654
145 3 10.8118 34.4982 3.62281
2164 1 11.8524 34.794 -0.298051
2622 2 12.8117 34.0442 0.833506
643 1 10.0867 31.8955 -0.314182
562 1 12.8578 30.5245 3.28771
1643 1 16.2479 31.1788 0.179104
1374 1 16.8143 34.0176 2.52316
962 1 14.1833 33.6956 0.368812
870 1 19.4203 31.8967 1.90597
2958 2 20.3765 32.1766 0.719294
240 3 18.0651 32.4213 3.82643
791 1 21.8373 32.6194 0.890101
495 1 19.7242 33.0157 -0.454334
2053 1 23.9847 35.2879 -0.00210773
6 3 23.0246 32.4301 2.84443
1342 1 23.308 34.695 3.85522
4 3 25.8263 34.1324 -0.778803
2066 1 26.8371 33.5325 1.30339
293 1 30.4594 30.8326 2.03023
706 1 29.3375 33.8644 2.04918
1018 1 28.1971 31.9488 2.86949
2564 2 27.911 33.5327 2.3996
1920 1 27.4134 34.1886 3.71678
1508 1 33.0354 34.8726 -0.122837
901 1 35.1826 32.5493 3.02469
90 3 31.1817 32.2885 0.205507
964 1 32.8396 32.2465 1.90816
2447 2 33.7552 31.6931 2.92948
387 1 31.3547 33.6074 4.1353
1488 1 3.20222 3.28919 6.98154
187 3 0.779749 0.762961 6.9946
2281 1 0.718892 2.96947 5.21436
475 1 1.2382 35.4126 5.24549
645 1 2.03254 34.8976 7.73833
186 3 4.15537 3.19127 4.88966
705 1 4.5286 0.940998 4.96092
1433 1 6.29095 3.25417 6.33136
2523 2 7.72807 3.46703 6.26174
1217 1 8.30867 2.26649 5.24855
1187 1 8.31627 2.88769 7.7104
2034 1 5.07828 -0.534781 6.99545
552 1 9.88577 1.0094 3.80813
2755 2 9.71496 1.78967 5.05338
1119 1 10.1699 1.02545 6.37592
1451 1 10.5847 3.12281 4.995
1155 1 12.6925 0.451398 4.45263
2821 2 10.2346 -0.299216 7.23118
1518 1 8.81797 -0.388537 7.97737
581 1 12.9994 3.61598 4.35747
926 1 13.6616 2.99301 6.81082
1475 1 14.924 2.03456 4.7806
2313 2 14.1287 3.23961 5.43461
2621 2 19.1211 -0.145164 3.78406
1515 1 17.5923 0.11924 4.03797
2244 1 20.7694 1.76932 6.9766
2810 2 21.0282 1.39528 5.48525
1362 1 19.7404 0.617914 5.1514
1827 1 21.4067 2.35657 4.47441
487 1 22.1642 0.219406 5.73303
2047 1 24.4737 0.830973 5.02885
2872 2 26.0207 1.21584 5.00139
2630 2 23.4579 -0.376697 5.12592
2253 1 24.9606 -0.123303 8.19405
915 1 29.0756 0.163064 4.61096
2237 1 26.3861 2.28837 5.85843
1921 1 26.7078 -0.134078 5.51584
1992 1 29.3563 3.7299 7.47575
799 1 31.1254 0.579059 7.50131
2333 2 33.8164 0.112972 4.73446
2140 1 34.4532 0.865336 5.81962
1206 1 32.3185 2.78323 7.02287
2963 2 31.6341 1.76563 8.114
378 1 34.4979 35.1171 8.26203
2743 2 -0.143156 4.13694 5.29049
430 1 2.68009 6.28622 6.6993
2385 2 1.09423 6.5677 6.97095
1646 1 0.285271 5.45091 6.26892
2330 2 3.66051 6.86266 5.5216
1982 1 0.558551 7.89214 6.54683
1418 1 3.16854 8.04523 4.72372
975 1 4.05964 5.65822 4.71793
1833 1 35.2315 4.76695 3.98711
972 1 0.292217 9.01495 3.86194
748 1 4.98338 7.09105 6.41884
1195 1 7.47144 7.46364 6.61981
2911 2 6.10441 8.10069 6.83287
1361 1 5.73911 8.15685 8.42078
309 1 8.43916 4.67975 5.90206
2715 2 11.5037 4.14781 4.20085
175 3 9.13822 6.77555 5.40698
1965 1 11.1862 5.5129 4.59037
519 1 10.5814 6.84976 7.34758
1989 1 10.7206 8.44441 4.67831
21 3 13.0684 8.39066 4.38621
2205 1 15.1789 4.45616 5.28585
2684 2 15.3134 5.89802 6.13799
1588 1 14.3826 6.83052 5.46166
1621 1 16.8853 6.13948 5.84936
884 1 15.1388 5.61437 7.55579
354 1 18.0629 4.82547 4.08601
2043 1 18.4866 7.35972 4.25818
285 1 21.537 5.82367 4.61899
2419 2 18.2053 6.11082 4.99671
2436 2 20.8932 6.07428 5.97462
586 1 21.1321 7.57972 6.46338
2050 1 19.3047 5.64946 6.11073
1801 1 21.4818 5.20047 7.19355
2305 2 20.2601 8.57787 7.52484
44 3 23.6538 4.71156 3.93408
1742 1 24.5938 6.76529 4.14983
2831 2 26.0036 7.3772 4.08903
1928 1 23.8619 4.67507 6.20652
2761 2 22.9435 4.53844 7.41951
1689 1 23.5703 7.64784 8.26178
1001 1 26.1893 5.28664 7.76954
960 1 27.0307 6.83054 4.99973
99 3 27.7582 4.63669 5.8448
1514 1 29.8763 5.8034 5.57479
2699 2 31.1217 5.51579 4.79271
350 1 32.0519 6.6737 4.19592
2074 1 34.4477 3.72337 6.41585
2398 2 33.0074 4.12008 6.71533
1999 1 32.2668 4.57 5.32043
311 1 32.8177 5.09486 7.80448
1274 1 1.59941 11.7124 4.60125
101 3 1.53869 9.86773 5.76928
474 1 1.53414 11.0873 7.70207
1976 1 5.9174 9.54267 6.41326
207 3 6.84563 11.3046 5.3205
890 1 8.38449 12.4813 7.18034
2458 2 9.93504 9.6807 4.11597
1458 1 9.30055 10.4525 5.32731
156 3 10.4949 10.9661 7.20998
1953 1 12.4953 10.0824 7.08047
1860 1 8.97416 9.16995 8.23538
1431 1 11.1334 12.6604 5.60204
2241 1 15.2278 11.9469 4.20291
1862 1 14.8653 9.49586 4.7871
2455 2 15.5497 10.756 5.26164
1697 1 14.6182 11.2006 6.47139
2795 2 13.8981 10.3081 7.57448
1090 1 17.0128 10.74 5.63721
333 1 14.688 9.15737 8.04347
272 1 21.7578 11.5001 3.82204
2291 2 20.2678 12.0644 4.14971
120 3 18.3406 11.7311 7.49219
1988 1 19.5324 9.65024 6.7887
1694 1 19.9152 12.1775 5.50728
646 1 21.5252 9.08401 8.31747
540 1 25.6733 11.5633 4.23302
2114 1 25.8824 9.05007 4.20477
2152 1 23.6696 9.87551 7.12645
78 3 24.4914 11.9695 6.36905
2363 2 23.2158 9.23785 8.39202
2080 1 23.5349 12.4811 8.42084
650 1 26.5466 10.7938 6.92398
2719 2 29.6595 12.208 7.05463
1025 1 30.4126 10.7108 6.82389
1813 1 29.0505 12.6518 5.8042
1183 1 35.1593 10.5495 6.0276
2087 1 32.2368 8.91729 7.24489
2714 2 34.0591 11.27 5.24914
2563 2 31.9672 10.356 7.15966
1968 1 32.633 10.8919 5.77235
2118 1 32.5051 11.2157 8.34565
1020 1 34.1697 12.8178 5.10041
2641 2 0.701195 15.1252 4.29567
626 1 1.52797 15.0958 5.51134
953 1 0.178754 16.3004 8.18232
1513 1 3.85911 16.805 8.16509
1693 1 3.93919 13.6637 7.83809
1226 1 5.73326 13.1773 5.94997
2603 2 5.1959 13.9775 7.0833
2062 1 5.20716 15.5179 6.58839
2842 2 5.2536 16.893 7.39562
1044 1 6.3326 13.9149 8.25922
757 1 6.4241 16.9601 8.28197
2957 2 7.87551 13.4366 8.20835
1842 1 8.14984 16.3 5.44865
142 3 8.65281 16.8774 7.47336
257 1 9.65214 14.4587 4.6656
2353 2 8.8854 15.783 4.25187
2918 2 10.951 13.5808 4.45189
2039 1 12.1077 14.6845 4.37583
1809 1 12.4194 16.8086 5.63115
1713 1 12.9555 14.6119 6.94104
724 1 17.4176 13.4303 3.98244
2645 2 13.0917 15.4624 5.49088
434 1 14.5028 15.2003 5.1374
132 3 17.0393 15.5186 4.75475
1391 1 19.1188 15.6306 3.80536
2094 1 21.3584 15.0371 4.88068
566 1 17.9482 16.0592 6.74847
2837 2 18.4948 15.3615 7.97791
1955 1 20.0682 15.7831 8.00341
1824 1 18.6159 13.8942 7.85067
2981 2 21.1904 16.6502 7.24226
917 1 22.4499 15.5714 6.88246
323 1 23.8141 15.8795 4.79386
2826 2 25.2338 16.7236 5.18574
482 1 23.2624 13.4928 5.36227
2329 2 22.8255 14.8802 5.49441
2003 1 25.4609 16.1494 6.66576
1426 1 26.2016 13.7598 6.60363
69 3 27.5573 13.4688 4.13332
2863 2 26.6256 15.1196 7.1728
805 1 28.0667 15.532 7.02236
606 1 30.6091 13.0537 7.90221
146 3 30.4838 15.4735 6.77438
1399 1 34.9149 15.1379 4.70428
801 1 34.6776 14.5366 7.05536
1257 1 32.5466 14.693 5.55319
2580 2 33.9767 14.3979 5.62396
735 1 33.4324 16.8235 7.78008
2407 2 34.2874 15.6634 8.20825
2433 2 2.83115 21.0142 6.88495
1654 1 1.28931 20.5675 6.91354
1583 1 3.43365 20.2292 8.05355
2068 1 -0.159863 18.6621 7.59286
2292 2 0.473973 19.3081 6.18664
1792 1 3.2667 20.8758 5.42455
1607 1 1.53918 18.5747 5.47285
2721 2 0.273552 17.6752 8.79632
225 3 3.9289 18.6957 4.6641
1367 1 35.0889 19.8637 5.33411
2188 1 5.10834 17.9091 6.25997
660 1 7.36753 20.9275 6.81998
1154 1 9.04719 20.5841 5.02767
2204 1 6.01365 21.4318 8.91027
1436 1 9.1367 19.0543 7.14702
2941 2 8.92669 20.4677 6.62706
1720 1 9.65207 21.6144 7.15453
1400 1 14.7924 18.73 4.01528
154 3 12.8453 18.9667 4.86216
2023 1 14.1118 20.1552 6.24208
2293 2 13.9512 21.1534 7.30711
1735 1 17.5622 20.2017 8.32877
879 1 17.7919 21.915 6.48004
746 1 20.7368 17.2769 5.92865
150 3 19.46 18.3686 4.50333
1220 1 18.3516 19.5234 6.09076
2457 2 18.3729 20.6117 7.05068
1596 1 19.7893 20.8379 7.65502
2583 2 21.1717 21.6254 7.45784
1253 1 21.9428 20.9403 6.40541
1189 1 21.9139 17.5326 8.21559
1419 1 24.8864 18.1501 5.17277
171 3 24.1945 20.2164 5.94696
2304 2 29.431 20.4774 4.03995
820 1 27.1278 18.9805 7.17491
1310 1 30.4735 20.0358 5.22588
1023 1 29.3115 20.0416 7.50174
2529 2 30.5973 19.4039 6.66136
1923 1 30.277 17.963 6.50474
2927 2 28.0354 19.5349 8.15986
1487 1 31.87 19.9141 7.09628
157 3 33.7946 21.6609 5.03564
1402 1 2.72889 22.5631 7.12977
1237 1 1.06161 24.3902 5.42558
2325 2 2.00098 25.4052 6.16951
905 1 2.15214 24.8977 7.81276
480 1 3.55027 25.0949 5.65325
2697 2 2.23365 23.4051 8.34548
2919 2 6.53616 21.9467 7.6749
1854 1 5.76588 22.6484 6.67325
58 3 4.40393 22.8628 4.43722
312 1 7.70221 23.0414 8.22188
1464 1 5.91822 25.0507 5.05329
2481 2 4.94097 25.9456 5.75119
2355 2 8.47391 24.3677 7.69735
908 1 7.53109 25.7227 8.05072
415 1 5.10984 26.1153 7.31024
1160 1 8.49536 24.3574 6.17552
471 1 12.7805 22.109 7.2862
1717 1 11.245 24.227 4.16571
85 3 11.1892 23.1604 6.2718
997 1 12.628 24.922 6.69457
1191 1 15.5278 21.8965 7.33259
2326 2 13.325 26.0141 6.11657
1534 1 16.8945 25.3952 4.18819
1749 1 15.8384 22.0847 4.78174
2346 2 16.3105 22.4838 6.09138
2807 2 16.1856 25.4404 5.52413
943 1 16.477 24.0388 6.37933
1313 1 14.5915 25.329 5.30501
1201 1 20.6202 23.0242 6.8065
2638 2 19.7385 24.1722 7.52287
717 1 19.0786 25.1313 6.65615
531 1 20.9659 25.1399 8.25532
2228 1 18.793 23.5169 8.52945
481 1 21.4986 26.1463 6.24578
1533 1 21.6664 21.8867 8.84101
1919 1 24.6593 23.8097 4.22211
713 1 25.0937 22.204 6.09115
2890 2 22.1123 25.8986 7.65554
2296 2 25.6962 23.4128 5.50849
2256 1 23.4809 25.2287 7.71702
1761 1 25.8661 24.587 6.41726
2122 1 27.0212 22.9918 4.78417
2582 2 28.6145 23.3892 4.50902
1960 1 29.2463 24.0135 5.76562
79 3 30.1958 25.1414 7.52009
642 1 32.0509 23.0089 4.36817
1796 1 34.718 22.8589 6.63724
1301 1 32.5137 24.7194 7.40651
2557 2 35.0234 22.6702 8.10897
2033 1 34.549 26.1366 7.78505
1822 1 1.72145 26.8537 6.1233
179 3 3.25978 29.0824 5.87741
329 1 3.3106 28.8819 8.25265
1530 1 4.68579 27.3196 5.20145
845 1 7.08189 29.1533 4.86156
2974 2 6.46474 30.6053 4.79364
1411 1 6.26019 30.2387 8.30838
2055 1 5.0682 30.5616 5.31426
1569 1 8.34352 27.1815 4.14284
819 1 12.3533 26.4943 4.81645
2411 2 8.52362 28.4713 4.89977
1522 1 8.84336 28.0311 6.47374
473 1 9.5694 29.4662 4.33404
2459 2 9.40232 28.9272 7.58253
2018 1 9.34509 30.4275 7.3704
115 3 13.0594 29.3561 7.65522
1870 1 12.4652 30.5439 5.79469
2111 1 10.7212 28.356 8.02584
807 1 14.7891 28.9486 3.83335
1760 1 13.7443 27.2397 6.73711
558 1 16.6696 26.6231 6.35899
182 3 16.6957 28.9369 5.16786
1701 1 15.1948 30.6436 6.59944
1061 1 21.5986 27.7612 4.22677
2998 2 19.0769 29.9802 6.84695
571 1 18.7507 28.4646 6.81812
488 1 20.6583 29.9412 6.64381
1032 1 21.9531 27.244 8.37301
1329 1 18.8586 30.5086 8.28204
2853 2 21.8824 31.0136 6.09351
2416 2 21.8585 26.4202 4.697
485 1 25.2688 29.2428 5.18116
373 1 23.1365 30.2274 6.14376
2652 2 24.7745 30.7177 5.7289
1186 1 26.1862 27.78 7.00526
2857 2 26.3615 28.1913 5.52724
993 1 25.3338 31.1244 7.03821
1869 1 28.4342 26.73 7.49594
1618 1 26.3054 27.0851 4.49923
2892 2 28.8443 30.0742 5.73947
1537 1 27.6376 29.1986 5.46051
246 1 29.9508 29.1955 6.38803
2617 2 27.5521 27.6036 8.3147
703 1 27.9402 28.9974 8.53734
2101 1 35.3062 28.573 7.25637
1548 1 31.2888 27.1723 7.04393
94 3 34.7615 29.0191 5.0698
2737 2 31.1846 28.1997 5.98147
698 1 32.3544 29.0693 5.71183
2193 1 1.81503 30.6036 6.488
1072 1 1.46837 33.0872 4.38073
2955 2 2.12435 34.5891 4.38774
2518 2 1.14871 31.2563 7.6665
668 1 3.67063 34.3665 4.95283
846 1 2.21936 32.5073 8.03745
2448 2 2.52211 33.8953 8.72327
1896 1 -0.206675 31.8271 7.70097
2665 2 4.80154 -0.365291 5.51071
2000 1 8.43443 34.6277 3.90807
1028 1 6.09368 34.7536 4.69008
1493 1 7.53815 31.5969 5.15548
1455 1 11.5098 32.4515 4.40845
399 1 10.1857 34.3153 6.27762
185 3 9.43278 32.1252 6.01293
2651 2 12.6106 31.4368 4.58549
1589 1 9.26091 32.9502 8.70354
1924 1 16.5167 32.5844 5.463
1509 1 14.105 32.0713 4.77034
2614 2 15.2055 31.9851 5.95142
1859 1 14.4842 33.1686 6.9523
1542 1 19.4326 34.198 3.89959
2093 1 18.3643 30.7112 5.74263
633 1 21.5021 31.6505 4.78658
2234 1 21.9697 32.2294 7.21092
542 1 24.8138 31.8486 4.75277
1096 1 23.9271 34.5015 6.33362
2587 2 24.873 34.2434 7.59566
1599 1 26.1829 33.632 7.44426
2320 2 22.6126 32.4169 8.63449
1985 1 23.8466 33.385 8.47422
2634 2 28.0449 34.9287 5.03883
789 1 28.6415 31.3803 6.4138
1311 1 28.5804 33.8846 5.9463
160 3 30.0382 33.8908 7.73705
223 3 27.1958 31.4486 8.56736
1336 1 33.3322 32.0248 4.43471
2604 2 32.4922 33.3088 5.06785
395 1 32.1236 32.9517 6.51247
2137 1 33.6748 34.4093 5.20502
139 3 33.5694 32.5967 8.71832
1944 1 0.172354 2.24945 8.64094
2916 2 3.60215 3.17526 8.40051
491 1 2.349 3.44984 9.48732
2839 2 0.900719 2.8207 9.76625
928 1 1.56058 1.53884 10.5444
2432 2 1.5167 1.03964 12.0353
1523 1 0.0548713 0.740605 12.4846
450 1 4.27556 1.94227 8.80231
2236 1 2.29325 -0.319603 11.7832
141 3 5.40025 0.0647054 8.99745
855 1 7.02595 1.92288 9.70531
2475 2 7.89421 2.98389 9.17409
857 1 5.48919 1.08589 12.4608
2059 1 7.08109 4.42989 9.38012
1097 1 7.78898 -0.290373 12.4656
2532 2 6.18109 -0.245006 12.4179
1010 1 11.2849 -0.0416558 8.24953
1008 1 9.21797 3.13357 9.96761
1867 1 11.8125 3.27619 9.39292
2688 2 10.6486 3.96497 10.0228
1227 1 12.2978 0.00807826 10.5498
2624 2 12.6284 -0.234759 9.1365
877 1 13.6078 0.5697 8.33713
1786 1 15.7383 2.14272 10.5251
91 3 14.0312 2.68746 9.21829
2612 2 17.049 2.03183 11.2286
560 1 17.193 0.366674 11.3638
2605 2 21.4352 2.2725 8.36783
618 1 18.4017 2.56793 10.8695
1415 1 20.5483 3.2442 9.03899
1825 1 19.4185 35.3515 10.4795
907 1 21.9151 1.06784 12.2938
292 1 21.8777 0.922587 8.92769
77 3 20.1847 3.90212 11.1817
1637 1 22.8699 3.0301 7.91981
371 1 24.9762 1.85311 9.81186
2402 2 25.042 0.384489 9.83493
2770 2 23.8246 3.96025 12.96
68 3 26.7303 2.96319 11.1942
2794 2 29.3295 3.43833 8.92896
1686 1 28.2507 2.59785 9.54401
505 1 29.1374 3.55359 11.9426
2276 1 27.0989 1.24807 12.7194
2178 1 30.8208 2.67735 9.16556
1803 1 26.5454 0.0337679 10.131
2943 2 27.9906 0.0781796 12.7863
326 1 32.9593 1.36482 9.04632
1795 1 33.9551 2.16987 11.939
2491 2 34.1682 0.73723 12.1936
753 1 34.3564 0.0252304 10.6827
2609 2 33.5026 -0.186861 9.29187
2225 1 0.232824 3.83305 10.5622
1669 1 0.974396 6.29436 8.50653
1767 1 1.04579 6.27764 11.0893
2345 2 1.70633 7.18662 12.3044
2741 2 0.157672 6.71981 9.84764
476 1 3.00863 6.62587 12.4374
1957 1 4.58656 4.45106 8.81691
811 1 5.34643 4.03818 11.2691
2990 2 5.66763 4.67263 9.99617
2782 2 6.19536 7.70689 9.81435
1584 1 5.52551 6.23318 9.87115
840 1 7.77435 7.6074 9.98511
1956 1 6.6488 6.39876 12.9325
2369 2 11.3661 3.78229 12.9302
2944 2 11.0578 6.59055 8.75367
304 1 10.6545 4.33817 11.5618
667 1 10.2128 5.19459 9.27078
1603 1 10.1739 7.468 9.79941
1776 1 12.505 6.65858 9.07013
2308 2 9.05226 8.50686 9.58742
501 1 12.61 4.72275 13.1042
1045 1 14.2448 4.67256 11.1181
129 3 14.9324 6.99328 9.22505
2640 2 14.179 4.91824 12.5602
1939 1 15.8185 8.16568 11.028
2251 1 17.2593 6.53047 9.1137
2037 1 19.4944 7.57247 8.50433
2575 2 18.5413 7.01034 9.70139
1757 1 19.4961 6.07396 10.3782
1871 1 18.3197 8.46489 10.4799
377 1 25.2815 3.89188 12.5603
247 1 22.6601 4.24663 11.9948
1711 1 23.3179 5.2773 8.82417
1788 1 25.1756 6.45451 9.84924
2284 2 23.6996 6.63759 9.54498
736 1 22.9081 6.96775 10.714
250 1 27.6464 7.00993 8.62182
2452 2 26.5589 5.75386 9.10374
1439 1 30.0624 7.82749 8.84914
380 1 29.7506 4.73532 9.77676
258 1 27.1801 5.05599 10.23
2572 2 30.0795 4.52509 11.4914
1698 1 29.5648 6.08006 11.7183
2965 2 28.6095 8.15615 9.0754
2116 1 28.0131 8.45672 10.5945
138 3 33.7283 4.33921 12.273
497 1 31.5438 4.54555 11.7018
189 3 32.416 7.61054 9.0657
1449 1 34.474 6.43474 9.78717
1524 1 31.6992 7.64714 11.407
2180 1 0.358453 8.24179 9.80993
525 1 2.85582 8.84625 9.01427
691 1 1.97155 8.78177 11.6164
2527 2 1.72162 9.12992 10.0442
2657 2 0.77439 11.6169 8.90146
814 1 1.15745 10.5519 10.1687
779 1 1.07087 13.0468 9.3887
1604 1 5.85235 8.63922 10.9097
545 1 7.28528 11.5045 11.8003
967 1 7.73827 12.4059 9.56009
1064 1 5.25943 12.6187 10.535
2486 2 6.74928 12.6617 10.8134
1649 1 11.2155 10.3887 9.63515
1465 1 9.19242 9.55855 10.7794
2833 2 10.6123 10.3608 10.9728
1855 1 10.3176 11.6021 11.7654
1617 1 11.3837 9.20567 11.899
2302 2 17.086 8.731 11.6308
2060 1 16.0723 12.4458 8.71502
512 1 13.777 11.339 8.73349
2321 2 14.7235 12.5195 9.28616
611 1 14.7657 12.2885 10.8352
490 1 17.1011 10.134 12.1089
538 1 14.2389 11.7612 13.1579
1115 1 19.5593 11.0063 9.36173
2760 2 20.4395 11.4295 10.4919
2242 1 19.4645 12.4275 11.2718
2250 1 21.0625 10.375 11.3848
2277 1 21.4406 12.6665 9.92222
106 3 22.2111 8.4979 12.2007
253 1 23.4598 9.57329 9.78121
20 3 25.447 10.9417 11.3003
2004 1 23.7456 12.408 11.0794
2484 2 23.0608 12.9581 9.84186
546 1 23.9274 9.89623 13.0273
821 1 28.5164 11.7364 8.13497
1977 1 28.121 9.35581 8.2157
2428 2 27.3208 10.7433 8.1642
1128 1 26.5333 10.8254 9.43703
1185 1 27.2869 10.0388 12.2237
2931 2 28.5897 9.44453 11.7279
267 1 29.5696 10.278 11.0218
89 3 30.5723 12.2795 11.7109
2119 1 35.0088 11.5848 8.70758
1463 1 33.8356 9.64173 9.91696
2813 2 33.6317 11.0649 9.59393
1546 1 33.1256 12.0812 10.5813
1705 1 2.26606 13.4472 12.1972
51 3 3.16252 13.5269 10.0908
1898 1 3.03108 15.9321 10.2455
2692 2 3.26597 17.2183 9.60741
2314 2 0.88785 13.4671 12.7775
684 1 35.4224 13.408 11.9755
2278 1 7.05332 13.9558 11.4661
871 1 7.51499 16.3112 11.9383
2298 2 7.42643 14.9802 12.7241
1222 1 11.5216 13.1032 8.49132
2623 2 12.5399 14.1849 8.35296
1555 1 8.72654 14.6473 8.37411
2100 1 10.6467 15.4132 11.1505
2413 2 11.1941 16.2479 10.0845
2223 1 10.2486 16.826 9.02953
426 1 12.385 15.4784 9.20589
825 1 12.7905 13.3867 11.7698
54 3 10.7217 13.6832 12.7404
2064 1 14.0461 13.8915 8.85241
2400 2 14.2064 13.088 12.2112
2133 1 15.3278 16.1289 9.72676
2648 2 16.6381 16.6937 10.0335
1394 1 15.2567 14.0713 12.6748
374 1 16.7629 16.8666 11.4959
1732 1 13.9645 17.6186 12.4535
2764 2 19.9172 13.2058 12.6255
417 1 17.9946 15.8724 9.43759
1156 1 19.7605 14.6882 12.2684
1863 1 22.7571 16.6348 11.1522
764 1 23.1741 14.5294 9.94951
2601 2 23.4955 15.3381 11.2948
2030 1 25.2111 15.6591 11.0691
2301 2 25.8055 16.2668 9.75949
1552 1 23.3597 14.549 12.5508
2002 1 26.4479 12.9347 12.2638
1298 1 26.2033 15.1491 8.80496
957 1 27.345 16.6841 10.382
273 1 28.9374 13.1975 12.8596
678 1 30.9425 16.1382 8.84483
1161 1 29.6813 16.96 10.7544
1812 1 31.1047 14.7571 11.0708
2689 2 31.083 16.114 10.3485
1357 1 34.122 14.9919 9.4937
56 3 33.4346 14.2001 11.503
1806 1 34.9634 16.2201 12.8315
1782 1 1.82708 17.9632 9.08877
2249 1 2.11214 20.1144 11.4881
2377 2 1.32523 20.0213 12.7737
2139 1 -0.116282 19.6096 12.6905
575 1 4.05414 18.3181 10.3175
226 3 4.2421 20.6452 10.2387
40 3 6.05179 17.9035 12.2256
1365 1 5.22443 19.8877 12.3825
2881 2 5.69226 21.2592 12.7503
1528 1 8.13233 19.0457 11.4452
1670 1 7.29035 21.1294 12.5453
2961 2 8.60419 20.2267 12.2127
455 1 12.1351 17.3779 10.5319
911 1 11.8402 21.0426 9.88514
1203 1 9.49784 21.2166 11.2476
2255 1 11.8311 21.4074 12.307
2767 2 12.7064 18.1127 11.7947
325 1 11.5899 18.6174 12.6094
2289 2 11.0484 21.8363 11.1313
2349 2 13.369 20.7517 10.1995
271 1 16.8781 18.0694 9.20625
1915 1 13.3465 19.3297 10.8267
1471 1 16.545 20.1015 10.7507
600 1 13.9549 20.4619 8.76086
2836 2 17.4808 19.4514 9.76257
280 1 20.1209 17.7029 11.666
431 1 18.9556 19.418 10.0642
2869 2 20.1291 19.1294 11.2546
1291 1 19.6892 20.0915 12.3934
2126 1 21.3781 19.8193 10.7253
2279 1 24.974 17.4073 9.26677
1889 1 24.8304 20.4201 9.02736
172 3 23.0325 18.5096 9.92871
2386 2 24.574 20.5295 12.0167
489 1 24.3349 19.0921 11.7171
1131 1 26.0386 20.9042 11.3095
2414 2 25.9752 21.2415 9.66108
2533 2 28.457 17.7997 10.5168
859 1 27.3838 20.6621 9.22718
1250 1 28.8319 18.4803 9.12534
675 1 28.1806 18.8879 11.5421
176 3 28.6043 20.8814 12.8321
2247 1 30.7895 20.828 12.4761
1790 1 34.6181 21.3425 8.74023