ITEM: TIMESTEP
1610000
ITEM: NUMBER OF ATOMS
3002
ITEM: BOX BOUNDS pp pp pp
-4.4793374994934609e-01 3.5010733749950013e+01
-4.4793374994934609e-01 3.5010733749950013e+01
-4.4793374994934609e-01 3.5010733749950013e+01
ITEM: ATOMS id type x y z
2260 1 1.03983 0.175694 1.20671
189 3 3.53471 0.682811 0.903544
1787 1 2.70728 2.21296 2.90856
2593 2 0.286949 -0.0556588 2.52278
1591 1 0.714465 0.866161 3.73114
2561 2 2.22646 1.42225 4.17626
1929 1 7.83826 0.141399 2.5606
355 1 7.50779 2.19621 0.793274
1481 1 7.68812 3.6342 3.54183
2383 2 6.37761 2.86206 0.137248
1050 1 5.00483 2.31968 0.107894
128 3 8.91488 2.14783 2.46302
1890 1 11.1703 2.33217 0.521897
2503 2 10.738 3.42832 -0.41873
249 3 12.6649 1.14254 1.97256
1729 1 14.0016 0.223237 0.154423
2117 1 13.9773 3.11827 2.51307
2166 1 16.0919 1.54656 -0.377584
2148 1 18.5562 2.61763 2.59301
2804 2 18.5416 3.35523 1.27071
1147 1 18.4444 2.28587 -0.0161296
2274 1 19.7161 -0.174973 2.07387
841 1 20.7239 0.0779022 -0.22742
339 1 21.8482 2.73612 1.66695
22 3 22.9347 0.772289 0.335994
1150 1 25.4851 1.48047 0.691006
2668 2 26.4349 2.22637 -0.141463
1706 1 30.0548 0.969343 3.58647
1227 1 27.9026 2.36046 3.8902
97 3 30.5784 3.9712 0.684873
1654 1 27.6118 1.10759 34.9657
354 1 31.8352 3.30463 2.49645
2711 2 32.092 3.48323 3.91975
1594 1 34.2245 -0.195852 2.31189
195 3 31.8643 0.269874 2.25246
998 1 33.0179 1.18648 0.146593
449 1 34.8728 2.8279 -0.121784
1201 1 1.31803 4.0546 0.649175
161 3 1.85484 4.71601 2.59835
1680 1 1.84389 7.03959 3.22721
2966 2 2.38114 8.39031 3.16643
2269 1 3.87389 4.80289 1.71679
2118 1 -0.194546 4.59811 3.78982
769 1 6.2954 4.33348 0.799466
1621 1 5.86877 5.31314 3.05591
2352 2 5.30248 5.1736 1.60095
1982 1 5.54335 6.58085 0.910186
2669 2 6.95898 7.34116 0.890003
1424 1 8.09367 6.39938 1.26746
315 3 10.1803 6.71114 0.428661
1886 1 12.1844 7.14291 1.50845
2312 1 9.79457 4.47146 0.143407
2613 2 14.415 3.82976 3.68995
232 3 15.8492 5.98205 1.24268
505 1 15.2743 5.0283 3.30755
650 1 17.0115 7.60439 2.46839
1959 1 14.2164 5.04612 -0.0905776
1629 1 14.0471 8.17803 2.85643
2313 1 14.2065 8.16717 0.395008
2459 2 21.3996 4.14126 1.47819
2220 1 17.4486 4.32903 1.06077
1465 1 19.9381 4.13294 0.957225
1601 1 21.6084 5.06427 2.727
2715 2 21.0744 5.31644 4.23901
558 1 22.0381 5.02094 0.310881
2390 2 23.3187 6.12924 0.0332172
1893 1 24.4874 5.41886 0.752009
1828 1 22.8589 7.39041 0.777604
651 1 27.0311 3.52162 0.270819
1947 1 26.6189 4.46376 3.15374
237 3 26.6988 5.86124 0.912348
1214 1 29.0192 5.63243 1.89382
2807 2 29.9515 6.76658 2.28702
1110 1 29.9709 8.0261 1.37864
565 1 27.3994 8.09512 0.999717
1115 1 29.7699 7.12748 3.74503
2400 2 28.7082 8.58071 0.489247
1092 1 32.893 6.97526 0.196873
1384 1 33.9363 5.83158 2.14489
2727 2 32.8124 6.9188 1.68963
515 1 31.3897 6.07315 1.92898
2454 2 34.1656 5.65742 3.77739
1791 1 32.7754 4.96453 4.18951
763 1 3.80334 8.60081 4.03281
2105 1 3.01906 8.56022 1.65936
2603 2 2.57238 8.92022 0.252322
1754 1 2.43934 10.5608 0.270418
1995 1 1.42818 9.50482 3.37101
1339 1 3.06413 12.4522 1.90338
2541 2 3.53578 11.6752 0.702744
447 1 6.64919 8.41469 2.06808
2708 2 7.22361 8.75583 3.43475
960 1 4.8516 10.9437 0.876278
1001 1 8.17991 10.8826 1.12962
1212 1 8.60123 9.59096 3.27635
1700 1 4.01865 10.975 4.77251
2705 2 9.23354 10.1579 1.86929
1524 1 10.1873 11.3365 2.55383
1420 1 9.88251 8.9948 1.21234
1202 1 12.4763 12.5569 0.0850785
109 3 12.6667 12.1259 2.31209
559 1 12.5488 9.81201 1.42118
2443 2 9.70454 12.745 3.22408
2924 2 13.0144 8.41154 1.58625
2776 2 15.9475 11.5216 3.17966
1820 1 15.9927 11.97 1.6668
508 1 14.555 11.3613 3.49515
799 1 16.4527 10.0009 3.07511
1480 1 16.8465 12.4761 3.94551
2816 2 17.6507 8.85835 3.0286
2037 1 20.6571 8.30494 1.54191
957 1 18.5722 9.54357 1.94958
2619 2 19.5363 9.13414 0.767982
655 1 19.9765 10.4881 0.151164
1775 1 20.6254 12.0114 2.54241
1368 1 18.2424 8.6628 4.36521
1855 1 18.6136 8.15001 -0.0542522
473 1 22.4505 8.25678 3.19857
2962 2 22.2475 8.58596 1.77026
433 1 22.7014 9.78251 1.06535
1457 1 25.697 8.91977 3.19962
2681 2 26.1991 10.3845 2.98721
1682 1 24.9489 11.342 3.60586
1058 1 26.516 10.6568 1.54961
7 3 27.5904 12.1367 0.279783
421 1 29.3074 10.0221 2.9767
1762 1 29.0455 10.028 0.116652
72 3 34.9532 10.8262 2.8383
429 1 30.2281 12.4481 1.77579
992 1 32.8744 8.16754 2.52517
944 1 34.4789 10.7709 0.749477
76 3 31.194 10.3319 1.97954
712 1 32.1453 10.9525 -0.32685
1485 1 32.8041 10.8064 3.7735
2291 1 -0.165395 13.0771 2.49213
1708 1 1.39789 14.9315 1.99198
1131 1 0.361792 13.9921 0.0441859
2485 2 -0.00271488 14.2736 1.5985
773 1 2.86193 16.4904 3.15661
2961 2 1.95548 15.3218 3.44769
762 1 3.88403 15.0051 0.37354
65 3 4.48256 12.9076 3.54686
915 1 7.26829 13.2471 0.200349
413 1 6.41697 13.666 2.50383
1974 1 7.61615 15.4512 1.28538
2920 2 7.54081 13.8863 1.52998
2562 2 7.65975 16.7109 2.31321
901 1 8.02914 15.8438 3.65217
1573 1 6.26249 17.2117 2.42259
2114 1 8.86157 13.4183 2.06051
1659 1 11.0353 13.5185 3.21738
1639 1 11.2795 16.7063 -0.226602
1260 1 13.8227 14.2937 2.83797
2760 2 14.6513 15.2948 2.20443
1626 1 16.1188 14.4731 1.79594
2477 2 16.642 13.3386 0.898894
2306 1 15.3233 16.4252 3.13526
976 1 14.2293 16.0412 0.913748
100 3 20.4578 12.6969 0.453371
389 1 18.1069 13.1976 0.811024
2630 2 19.6362 15.7975 2.0136
652 1 18.3572 16.7696 1.46724
1289 1 20.3634 15.0227 1.00198
1990 1 18.9788 15.1701 3.20183
2870 2 23.5453 14.7712 1.18619
2168 1 22.8649 13.5433 0.450038
2096 1 23.5938 14.7937 2.66426
1792 1 22.997 16.0706 0.609881
425 1 25.1514 14.8305 0.722641
2307 1 26.0028 16.9318 3.90104
526 1 27.4296 13.754 2.08386
649 1 29.7041 14.7097 2.95894
2529 2 28.2015 14.7246 2.8677
1636 1 27.8519 16.1446 2.39225
1824 1 28.9366 15.4651 -0.335523
2714 2 30.8888 13.7497 2.17214
2153 1 31.2019 14.5888 0.816445
625 1 34.3704 15.2137 1.49868
402 1 32.0372 13.8567 3.01178
36 3 32.8935 16.5197 0.451333
796 1 32.1946 16.9604 2.66664
196 3 3.63002 17.419 0.909115
1768 1 1.36098 17.8876 0.797142
2701 2 0.0590815 18.2892 0.107678
2628 2 3.58291 20.8032 2.73551
377 1 2.32344 21.2206 3.41599
1552 1 3.75329 19.3353 2.44654
2325 1 7.1807 20.7796 2.2681
1191 1 8.7562 17.6202 1.90696
1568 1 11.5726 17.5491 3.10968
839 1 8.59023 20.4968 0.242024
49 3 10.7709 18.3417 1.05318
1976 1 11.6587 20.4395 1.37685
1531 1 15.8719 21.2577 2.83782
727 1 17.03 18.2338 -0.263316
592 1 17.6823 19.2207 1.9006
543 1 13.616 21.7825 2.02423
2123 1 20.636 16.9869 2.38821
2471 2 18.032 18.2212 0.874144
2341 2 20.5744 19.8821 0.445087
1521 1 20.2043 20.6071 1.68008
2271 1 19.4247 18.7222 0.264521
2345 2 21.3824 17.703 3.60252
1673 1 21.9395 19.2648 0.274673
806 1 22.7524 18.0748 2.92032
122 3 23.7501 18.3235 0.882665
2405 2 24.675 21.7437 0.497967
977 1 25.0644 20.3862 0.196203
1492 1 26.2381 17.941 1.43467
2981 2 26.8612 17.3316 2.73624
2465 2 28.9832 19.5655 2.63504
1590 1 28.0202 18.5034 3.18987
1581 1 28.5804 20.2522 1.37224
550 1 30.2998 18.773 2.4831
1497 1 29.1646 20.6248 3.89408
1740 1 -0.269824 19.0131 3.46219
2099 1 34.2969 18.5758 1.22168
2640 2 34.2459 19.6018 2.44447
2053 1 32.6848 19.4185 2.78759
2626 2 31.6675 18.2641 3.2956
1868 1 34.5501 21.0045 2.05413
1010 1 31.526 22.1643 -0.106546
1994 1 3.88821 21.4758 1.21254
2082 1 2.2607 24.6361 1.53053
2559 2 1.36929 24.0203 0.329698
455 1 0.239197 23.3439 0.9457
1421 1 0.390383 25.128 3.36541
1829 1 2.2955 22.8957 -0.29095
2510 2 1.58146 25.6627 2.62785
281 3 0.316428 22.7487 3.44232
2472 2 3.79925 22.3897 -0.034191
1507 1 2.70389 26.0591 3.51029
2653 2 7.7657 21.5966 1.02694
860 1 4.89612 21.5587 3.37198
1540 1 6.70805 21.9936 -0.0117946
2268 1 4.51934 23.7366 0.287892
2300 1 7.04444 25.7908 2.29319
617 1 6.64987 24.9222 -0.151553
2431 2 7.44512 25.9792 0.729142
2184 1 8.7047 22.6659 1.51315
2886 2 12.3922 21.6861 1.05274
244 3 9.93191 24.3396 2.31273
1148 1 11.6629 23.0485 0.969868
2122 1 8.89683 25.7774 0.554132
1843 1 11.6819 25.9873 1.71925
1427 1 12.3882 25.8056 34.7266
688 1 12.9472 21.6021 35.0178
9 3 13.1884 25.2643 3.4062
2596 2 14.9327 22.44 2.54572
750 1 15.2926 23.018 1.05997
2462 2 16.6893 23.534 0.448213
416 1 16.9813 24.9765 1.04216
788 1 14.6398 23.3867 3.68681
294 3 18.4918 21.6045 2.86723
888 1 17.7433 22.6758 0.994077
2215 1 19.3822 26.1411 3.20182
707 1 21.1142 23.7704 1.06095
1567 1 23.446 21.961 1.34404
233 3 22.4363 22.9732 2.68364
1210 1 24.8094 24.196 2.8231
1301 1 25.9151 22.6567 0.990168
1083 1 24.3138 25.0317 -0.219598
2496 2 25.9755 23.3776 2.47669
453 1 26.0111 21.7982 3.25875
1564 1 27.3216 24.0505 2.55151
284 3 29.0903 25.061 1.74307
1664 1 28.8069 23.9854 -0.190788
654 1 30.7611 24.4284 2.77989
2060 1 33.2741 23.649 2.37419
2746 2 32.2427 24.4806 3.09885
112 3 33.6775 22.635 0.4835
895 1 32.6098 26.1346 3.06677
953 1 1.06326 26.8675 1.75232
2646 2 1.68679 28.351 1.23487
820 1 0.754302 29.4344 1.50386
1651 1 2.99957 28.4286 2.05128
782 1 2.06338 28.2976 -0.367095
1085 1 5.18913 27.259 2.90911
228 3 5.02625 28.3974 0.820112
1307 1 7.02654 27.3627 0.421564
2394 2 7.54486 29.5471 3.19732
2786 2 6.47986 26.7766 3.42203
1719 1 6.24185 30.06 2.5617
1385 1 7.59217 27.9628 3.45196
1877 1 6.9168 29.6777 34.9851
2263 1 8.75214 29.8661 2.4526
279 3 8.8333 28.9186 0.141193
2747 2 12.0571 26.7828 0.367709
1569 1 10.9991 27.9058 0.0683301
680 1 12.3735 29.2898 2.33927
1160 1 13.3772 29.9733 -0.0254284
894 1 14.8631 25.9285 2.15137
2528 2 16.1239 26.323 1.35955
2273 1 13.4183 27.6965 0.671757
2675 2 13.3947 29.2145 1.20027
1395 1 14.9553 29.2509 1.83296
1474 1 15.7513 26.7596 -0.126323
2470 2 15.6541 30.026 3.03881
1506 1 16.9512 30.5538 2.51063
1814 1 17.1741 27.2231 2.01244
331 3 19.6531 27.134 1.15165
1249 1 19.8405 29.9631 0.224049
1405 1 19.9438 29.5282 3.86524
59 3 24.2838 26.185 3.94315
619 1 21.6858 27.9935 1.48743
2251 1 24.2137 27.6884 1.91876
2775 2 23.0955 28.4207 1.21796
942 1 23.1751 30.0618 1.73247
2084 1 27.7205 29.0733 2.90413
2835 2 27.7595 27.4768 3.17253
884 1 27.6748 26.8657 1.75929
1329 1 30.0195 30.0925 2.64695
2888 2 28.6966 30.3588 3.17869
1998 1 28.6674 29.2386 -0.170706
1718 1 29.1267 27.2563 3.87559
215 3 30.9081 29.3231 0.555737
1283 1 33.1181 26.3208 0.625686
1858 1 30.7126 26.9319 1.46685
2014 1 32.7572 28.386 1.94987
2499 2 32.19 26.9668 1.83311
316 3 34.1435 30.2532 1.48345
1431 1 2.69216 32.7852 1.80876
2988 2 1.24732 32.8159 2.18907
1127 1 0.881839 34.0528 3.14219
2103 1 0.176888 32.5352 1.08848
859 1 1.03807 31.5693 3.24013
1803 1 5.37423 -0.257272 1.73524
2825 2 6.76825 34.7134 1.98853
2258 1 7.25092 34.5305 0.345776
295 3 4.65999 32.1207 2.92715
1045 1 6.78892 33.3509 2.74252
2329 1 6.61507 32.1447 0.143192
601 1 4.5827 30.707 -0.263513
2584 2 7.7925 33.2457 -0.248172
395 1 11.3123 34.6141 2.27167
521 1 9.03882 32.8554 0.602047
1326 1 11.2208 32.1329 1.50053
2644 2 11.3343 33.1914 2.80911
2515 2 10.4882 32.3725 0.0397942
2302 1 10.2016 31.0015 34.9938
2070 1 11.2591 33.4401 34.8552
1735 1 12.7764 32.8597 3.61594
2342 2 14.3727 32.8419 3.09453
1988 1 14.2312 33.1651 1.64995
462 1 14.7278 31.3065 3.51228
1037 1 15.2659 33.783 3.79893
1112 1 17.6437 32.3637 0.11939
346 1 18.2876 34.8231 0.140959
2965 2 19.8604 34.6794 0.629658
2695 2 19.6582 34.356 3.42352
1970 1 18.6771 33.2312 3.11793
305 3 18.9169 31.4999 1.60634
1666 1 20.2733 33.2193 0.79213
2292 1 21.116 33.7135 3.68464
903 1 22.812 34.904 2.07337
2815 2 22.6371 33.8362 3.04945
608 1 22.6156 32.3846 2.19687
2461 2 23.8119 31.4381 1.85019
952 1 24.9011 31.5967 2.78301
2049 1 24.0987 31.6862 0.283051
635 1 25.4249 33.7614 0.730354
2237 1 27.723 0.0311837 3.08202
48 3 27.4348 33.5547 2.04974
863 1 27.9944 31.6009 2.75403
1107 1 28.4527 33.5011 -0.10972
632 1 30.4204 31.9382 -0.359885
1989 1 32.0323 31.2538 1.2103
1009 1 33.9328 31.9375 3.28428
1550 1 31.1621 33.7097 1.28044
2615 2 31.6788 32.5445 0.514523
83 3 34.6766 34.3707 -0.140504
1382 1 2.92956 -0.0677135 4.24869
457 1 2.12839 2.16655 5.45856
39 3 0.766462 3.20328 7.46297
438 1 4.72928 0.271266 6.07788
82 3 4.43689 2.29691 6.93968
906 1 5.29027 3.07403 4.36201
1780 1 6.17843 1.83599 8.18311
1053 1 11.0112 2.20697 3.88717
1142 1 9.17072 0.667801 4.5877
2155 1 9.96116 2.09556 6.28409
2992 2 10.4128 1.29212 4.98554
1303 1 11.4446 0.152299 5.48534
2353 2 9.85656 2.98447 7.58821
765 1 13.6052 0.548892 4.04571
607 1 13.2087 1.60204 6.35515
2393 2 13.1174 0.481485 5.43065
1865 1 14.9236 2.90967 4.85769
3002 2 16.3776 2.95322 5.75149
535 1 15.8822 3.03495 7.12276
1771 1 16.9976 1.61525 5.36432
981 1 14.8359 -0.263767 8.37067
2752 2 16.5152 -0.311646 8.68746
2197 1 19.2059 -0.153288 4.56287
214 3 19.1597 2.27624 4.8163
1769 1 19.934 2.0088 6.94816
2979 2 20.5254 1.54934 8.25352
1508 1 20.7115 -0.0648481 8.02581
1737 1 24.0222 3.54744 6.65498
1724 1 24.5084 0.432617 7.69349
2829 2 28.624 0.74269 4.05608
2426 2 27.3302 3.74276 4.18689
1752 1 26.4107 3.36313 5.47315
13 3 29.857 1.37591 7.28414
477 1 28.4587 0.329843 5.52814
2069 1 29.5998 3.43753 6.98651
1355 1 30.8121 3.55067 4.75878
551 1 32.8993 2.1526 4.36978
1086 1 34.3509 2.50229 6.26997
1282 1 31.9106 1.54864 6.74082
2389 2 33.2245 1.64796 5.985
469 1 33.7247 0.144403 5.49368
596 1 2.11382 6.69569 5.8844
2811 2 2.98816 5.94587 6.83303
1580 1 2.71822 4.50739 7.14
229 3 0.243292 8.1811 6.09537
798 1 -0.0250903 6.92868 8.09926
1859 1 2.96791 6.66083 8.23475
2654 2 6.35345 4.05682 4.09321
706 1 7.51251 7.62134 4.32819
1804 1 5.8526 4.31671 7.62374
978 1 4.60165 6.30872 6.43318
1199 1 6.5692 5.05658 5.28144
2871 2 5.99067 5.55605 6.74804
511 1 6.98562 6.6697 7.08557
1379 1 13.0924 4.48674 4.4076
2165 1 9.28538 4.30385 7.14699
197 3 8.8414 6.06548 5.61772
2305 1 10.6611 5.10316 4.52781
2716 2 12.0925 5.53359 4.81838
1503 1 10.1594 7.45797 6.63957
1230 1 12.4798 6.9784 4.40065
1239 1 12.3615 5.64101 6.40631
2025 1 13.7158 7.70141 7.23107
2505 2 13.28 6.32989 7.69482
376 1 15.1384 7.4025 4.88333
2907 2 13.8113 7.90282 4.46838
2149 1 14.3327 5.18209 7.76618
108 3 17.5014 6.22596 4.68387
936 1 17.3239 4.1081 5.44615
202 3 16.3896 4.83019 8.60088
1945 1 19.7908 6.15346 4.06648
1003 1 20.9844 3.85816 4.79431
1949 1 17.7692 6.47565 7.35916
2970 2 19.2314 6.90016 7.56007
813 1 20.3222 5.92863 7.1462
301 3 21.211 8.19981 5.21472
1505 1 19.5867 8.28012 6.94125
2762 2 25.3522 4.24557 6.36684
1981 1 22.1803 6.10138 4.97683
283 3 21.9388 4.28486 6.98971
483 1 25.3282 5.63208 5.78893
131 3 24.7543 7.69061 4.78863
837 1 26.1939 4.10184 7.81267
1902 1 28.5038 4.70345 4.91276
2652 2 29.8301 4.38052 5.87149
2171 1 30.427 5.69582 6.22405
656 1 26.7078 8.42834 6.06073
194 3 30.4039 7.89459 5.89528
733 1 34.4535 6.95549 4.5918
2078 1 1.18228 9.65368 7.48053
1547 1 1.09937 12.2056 7.44339
2534 2 1.34041 10.9582 8.22404
1812 1 6.09144 9.79742 3.96805
2689 2 4.69666 9.66548 4.81653
1672 1 5.27512 8.98569 6.0104
318 3 6.64109 9.0576 7.76553
2157 1 6.75534 12.4699 6.75755
2229 1 8.71509 9.44424 7.05424
2809 2 10.1085 8.94047 6.95854
2233 1 10.9259 9.88994 5.87284
670 1 11.0746 9.19348 8.14622
2952 2 12.3958 10.3745 5.84727
1180 1 12.2739 11.587 4.89543
1600 1 9.00851 12.6469 4.51053
2214 1 13.252 9.21905 4.93153
2328 1 13.2731 10.512 7.07403
1278 1 16.1361 10.3025 7.66186
2336 2 16.732 11.634 8.08398
1783 1 20.9195 10.2894 4.49543
1334 1 17.466 12.2145 6.94525
2410 2 21.0289 11.7392 3.99207
46 3 19.8107 11.0856 6.7199
2250 1 21.7563 10.4336 7.25905
715 1 23.4109 8.73323 6.39101
2696 2 23.1905 10.1316 7.04567
1563 1 23.686 10.9789 5.76308
2935 2 23.9869 12.0337 4.64495
522 1 22.669 12.21 3.91456
1438 1 24.1147 10.5329 8.15643
786 1 27.2341 11.0652 3.95504
974 1 28.7191 8.67005 7.70807
2770 2 28.858 10.7194 4.24086
1688 1 27.1178 10.7403 7.21273
2679 2 27.6498 9.39031 6.72066
891 1 28.8169 9.65633 5.53368
637 1 29.556 11.9524 4.67353
1554 1 34.4664 10.1083 5.41583
1821 1 32.0838 9.14096 5.6103
2899 2 32.9663 10.3549 5.27625
2003 1 32.5382 11.4451 6.41169
1586 1 0.776726 15.7973 4.29202
1400 1 2.6092 14.1616 4.17129
145 3 2.21348 13.9575 6.40917
695 1 1.51932 15.6522 7.6679
1170 1 34.6405 16.4017 8.12681
1398 1 4.37162 13.461 6.09113
2974 2 5.62523 13.4048 6.98073
1408 1 6.21351 14.9169 7.01492
2347 2 5.26007 16.151 7.31921
689 1 4.32424 16.4295 6.09452
1434 1 5.95275 17.2671 7.96303
2945 2 8.40014 16.5895 5.05286
241 3 9.11711 13.2549 6.78321
1080 1 8.93969 15.4956 5.9253
398 1 11.5297 16.2342 5.41126
919 1 11.7655 13.6549 7.10902
3 3 12.457 14.22 4.98769
2875 2 12.3719 14.2998 8.31045
2542 2 15.6303 16.0965 4.81051
2063 1 14.4939 15.2003 5.28802
12 3 15.0098 16.9538 7.82829
509 1 16.9966 15.5847 5.00629
1542 1 16.657 15.4353 7.72349
2315 1 13.4092 15.312 8.12864
1378 1 20.2698 12.6854 4.9788
327 3 18.2385 13.7936 5.01845
714 1 19.15 15.278 6.99868
2550 2 18.1254 15.4425 8.01494
969 1 21.5032 16.5626 4.68841
107 3 21.0134 17.0957 6.93794
160 3 23.9904 15.9279 4.49563
1151 1 24.484 13.368 5.03932
2261 1 22.6482 15.5136 7.21768
2361 2 23.3691 14.7537 8.24033
1766 1 23.1047 13.2784 8.25251
1383 1 24.9334 15.4554 8.07666
2520 2 26.296 14.7472 8.17009
1407 1 27.6615 14.5024 4.44658
2322 1 26.7902 14.6211 6.67422
2524 2 28.1324 15.0812 5.80207
930 1 29.2852 14.1772 6.30866
2054 1 28.4326 16.5386 5.87147
2570 2 30.4627 14.4023 7.35501
471 1 30.2663 13.3954 8.43846
2474 2 32.9902 12.9301 6.66253
2219 1 30.5173 15.8201 7.81493
130 3 33.7248 15.2524 4.20429
357 1 31.5934 13.8684 6.40448
514 1 33.9585 13.4087 5.62475
1731 1 33.3386 13.0145 8.13864
1716 1 33.4006 16.7805 6.11483
225 3 1.21893 18.118 4.83621
392 1 2.08557 20.935 6.98041
2905 2 3.14897 19.7567 6.78865
1252 1 2.65508 18.6533 7.75507
1195 1 3.1109 19.1362 5.46294
1188 1 -0.0547782 18.3747 6.64315
2549 2 6.34813 21.004 3.67671
1561 1 7.13387 17.3847 5.41753
306 3 5.05965 17.8431 4.43076
1896 1 6.29436 19.8282 4.58265
218 3 7.02718 19.3456 7.35005
502 1 4.55055 20.2357 7.11374
718 1 8.22998 21.1813 6.46529
1308 1 9.56507 17.6742 4.78527
2780 2 11.1555 17.474 4.55306
2092 1 11.659 18.8091 5.30271
2635 2 12.5452 20.112 5.33389
1081 1 11.6732 21.1878 4.79497
1237 1 12.5961 20.529 6.87631
1773 1 9.18302 18.445 8.20302
66 3 15.9489 19.1458 3.86257
1088 1 15.3795 17.4674 5.41709
620 1 13.8624 19.9747 4.59142
2087 1 13.5816 18.7892 8.56499
2700 2 13.029 20.1437 8.38584
1246 1 20.5922 18.8559 4.14884
897 1 17.7212 20.3433 7.27492
1510 1 17.9161 20.0923 4.72411
1733 1 18.9687 18.38 6.40161
2522 2 18.5752 19.796 6.12535
1516 1 19.8015 20.8352 6.3243
2768 2 20.9951 21.5066 5.56183
1443 1 21.9601 18.8885 7.92666
1287 1 23.8141 21.9754 4.44244
1932 1 22.2094 20.6146 6.11288
1123 1 24.4451 17.7259 6.03151
2424 2 22.561 20.2251 7.64971
1940 1 24.2273 20.0241 7.40068
2404 2 25.0685 19.0601 6.35899
892 1 25.3055 20.0113 5.0844
1513 1 26.4284 18.9864 7.09149
2866 2 29.7804 21.2715 5.18976
2264 1 29.849 20.2808 6.2916
77 3 30.2767 17.9334 6.85557
2056 1 28.5559 19.2633 8.51906
2565 2 27.0661 19.4005 8.68462
2722 2 34.229 17.5488 7.09925
2107 1 31.5093 18.2595 4.79279
801 1 33.515 18.4498 8.12373
2195 1 31.1877 21.8558 4.73149
737 1 0.993159 22.758 5.67973
2590 2 1.77266 22.56 6.89551
571 1 3.25934 23.2434 6.88239
753 1 1.12405 23.0451 8.22009
1772 1 6.99519 22.2157 4.40935
874 1 7.83345 23.7964 6.09635
2873 2 8.15754 22.4119 5.67546
147 3 7.19626 25.8109 6.7522
989 1 6.54705 26.0865 4.75722
2205 1 11.471 23.5079 3.87646
1376 1 9.56729 22.5266 4.77613
2595 2 11.0885 22.7386 5.12453
1317 1 11.4893 23.1527 6.48494
2212 1 12.547 25.6916 7.88902
1818 1 9.78806 25.8816 3.9943
1190 1 11.6563 25.9492 5.45287
2582 2 17.014 21.6803 7.81308
126 3 16.3321 24.9528 6.5472
1409 1 16.1283 22.5222 6.90209
1790 1 14.0176 25.3732 5.80771
1271 1 20.866 21.5728 4.12482
1469 1 19.2207 23.6013 3.61222
2833 2 19.2248 25.0251 4.21105
1076 1 17.9534 25.4002 4.99803
1634 1 20.2755 25.1499 5.41945
2002 1 21.4095 22.8211 6.22349
2789 2 21.6918 24.4202 5.8013
2533 2 25.204 21.6577 4.58392
1920 1 22.2786 24.8896 7.01852
852 1 22.3907 24.4279 4.4644
1101 1 26.065 22.5352 5.53341
2784 2 25.9282 23.8718 6.58142
982 1 25.2861 23.4169 7.83338
2080 1 25.2479 25.0062 5.96901
749 1 28.9257 22.4955 5.45205
691 1 27.5485 24.0933 6.79681
1614 1 29.8445 24.8882 5.90947
2863 2 29.0879 23.7839 6.57083
1707 1 29.6239 23.1651 7.81597
1046 1 32.3213 24.0883 4.59456
404 1 33.8068 21.9039 4.53497
1373 1 34.7763 25.4267 6.70697
2631 2 32.662 22.5402 5.23849
1374 1 32.6956 22.7149 6.72476
171 3 34.5205 23.6324 8.01041
631 1 0.869933 29.6837 4.81186
1062 1 3.13063 27.4116 6.75927
1834 1 -0.0573417 29.9246 7.18746
2941 2 3.85882 26.7534 7.83105
2432 2 -0.337259 29.3349 5.87462
153 3 3.57619 27.8828 4.47074
676 1 3.13928 30.5241 4.09032
1527 1 34.9524 27.7747 5.82157
736 1 5.4198 26.7906 7.90381
2881 2 6.66215 29.4873 5.99264
1748 1 5.40302 28.9192 5.38796
1181 1 7.52047 28.6607 6.94802
779 1 7.61515 30.0589 4.73516
2031 1 9.33466 26.3283 6.47669
2139 1 10.4573 28.1083 5.26034
2946 2 10.1347 26.6178 5.25222
257 3 9.66814 28.6482 7.79103
179 3 11.3089 30.0451 4.37398
604 1 12.2458 28.876 8.63136
882 1 12.6529 30.0574 6.16299
2543 2 12.8442 26.0957 6.51732
2076 1 15.6879 29.0567 4.18592
1315 1 13.0254 27.6096 6.40132
1996 1 16.2066 27.3482 6.54758
2564 2 13.0047 28.9856 7.2437
2335 2 15.9688 28.4143 7.56056
2081 1 14.55 29.1514 7.72434
451 1 17.0248 29.4839 7.82655
182 3 17.5007 27.6999 4.56725
2407 2 20.2762 29.4087 5.33756
1696 1 19.2514 28.6562 6.22835
172 3 19.1637 28.8406 8.70925
1827 1 21.628 28.6772 5.75772
1714 1 23.3501 29.4874 7.18943
2386 2 23.199 29.0981 5.65508
480 1 23.947 27.7852 5.63426
2255 1 23.4746 30.3582 4.95984
302 3 26.4707 27.6185 6.28611
501 1 26.6809 26.9844 4.17612
594 1 26.6943 29.7717 5.69653
987 1 28.6794 27.6116 7.04799
289 3 30.473 27.2397 5.55279
2587 2 29.1217 27.3029 8.45537
1462 1 32.6361 26.7925 5.95878
2343 2 33.989 26.6972 6.56823
1938 1 33.9238 27.3478 8.08114
2199 1 31.3107 29.4127 5.73744
1728 1 33.7636 29.9128 5.21653
2379 2 32.3827 30.4501 5.77609
854 1 32.7713 31.0637 7.09538
2918 2 1.75742 31.0382 4.47882
781 1 2.9029 34.0787 6.58917
925 1 1.4951 31.9411 5.76321
2425 2 2.59513 32.6184 6.9909
2797 2 3.93461 34.6799 5.35056
506 1 3.73597 31.6941 6.70296
1652 1 1.65909 32.687 8.22902
2211 1 4.50198 33.5845 4.51854
2042 1 6.38076 30.9281 6.5839
2736 2 6.6031 31.7078 7.94207
1145 1 6.10679 33.104 8.0503
572 1 10.3168 32.6139 3.75509
187 3 8.28758 34.0285 4.53752
1418 1 9.95225 30.7399 6.68757
795 1 9.00355 33.2457 6.52543
2822 2 9.48856 32.0238 7.30632
1817 1 10.601 32.4118 8.42184
394 1 12.627 33.8569 8.0162
2287 1 13.7802 34.5898 6.02633
979 1 14.9511 32.7529 7.28385
2486 2 14.1474 33.9904 7.45326
139 3 16.9619 34.6609 5.0147
1962 1 17.0386 34.841 7.29771
1132 1 20.5211 30.9479 5.9982
1690 1 19.3874 31.2961 8.21479
2922 2 19.5137 31.8872 6.81103
335 1 18.2145 32.2722 6.14754
1701 1 20.438 33.2101 6.77673
2458 2 21.3649 33.9449 7.83368
520 1 23.5702 33.6434 4.18705
2819 2 24.2371 34.3885 7.90043
57 3 24.9817 32.1559 5.11311
1526 1 22.7233 34.0372 7.00127
1093 1 25.3172 33.5005 7.30105
1351 1 28.8899 30.3807 4.81286
2198 1 28.4441 31.0551 7.24448
132 3 27.5522 34.0574 7.22255
494 1 27.2787 32.3427 5.52982
2671 2 27.7539 30.89 5.92972
1042 1 29.9233 34.228 7.86557
943 1 32.2761 33.9708 3.92341
1760 1 34.6786 34.5313 7.71771
2865 2 33.0372 32.6878 4.16667
975 1 31.988 31.6344 4.82497
2406 2 33.7565 34.3137 6.55291
2022 1 33.8636 32.9831 5.66266
764 1 32.2324 34.1957 7.06585
2682 2 31.3538 34.0061 8.39202
1089 1 31.7051 32.5515 8.92535
1116 1 2.47603 1.83685 8.4431
1607 1 1.2842 0.166242 10.0247
2783 2 2.55497 0.941811 9.68321
444 1 2.87315 1.97863 10.9402
741 1 3.60859 -0.104184 9.82708
2851 2 2.10904 2.7812 11.9861
1306 1 1.02023 3.60802 11.3739
2860 2 7.36327 1.99105 9.11201
866 1 7.46573 0.745114 9.96027
819 1 7.21949 3.27112 9.91832
1498 1 5.59672 3.63065 11.6712
1074 1 8.06813 3.6254 12.2912
1918 1 4.90799 34.9155 12.3895
1871 1 8.77213 2.08105 8.41017
2200 1 11.1613 2.99469 8.31356
770 1 10.0082 2.46771 11.1925
29 3 9.66046 0.0715528 11.2144
2740 2 9.72119 3.67684 12.0742
431 1 12.0319 -0.0441131 11.9996
216 3 13.4862 3.10777 8.06495
343 1 13.1115 1.96049 10.998
2423 2 13.8432 3.45475 11.1355
873 1 14.6916 3.6076 9.87607
2853 2 13.275 0.847072 12.1677
585 1 16.8801 1.23164 9.25982
703 1 14.476 -0.0395928 11.9406
2057 1 14.9845 3.15987 12.3514
1534 1 19.3885 1.55127 9.44758
2234 1 18.0982 1.38662 11.4528
1109 1 17.8951 3.49992 9.81485
2392 2 18.0802 2.02062 10.0804
2326 1 21.7689 2.29062 8.60442
220 3 24.5998 1.99583 9.29801
2249 1 23.8157 1.04132 11.1441
1606 1 22.19 2.84817 11.841
2872 2 23.513 1.99668 12.3338
1544 1 24.4921 3.09118 12.7754
1971 1 27.9102 0.49724 8.44212
1200 1 26.6174 1.4759 10.3898
2912 2 27.9127 1.01132 9.88688
1864 1 29.2537 1.78928 10.0353
150 3 30.7442 0.527561 11.6131
1435 1 28.3895 -0.303186 10.7599
2183 1 34.6029 2.33447 9.22792
2936 2 32.8321 2.48685 12.2489
1149 1 32.1564 3.25696 9.38278
2504 2 33.6017 3.5087 9.65244
1354 1 31.3395 2.87493 12.0895
403 1 33.0563 1.11215 11.5963
1873 1 33.7486 3.61461 11.3097
111 3 34.3262 0.132348 9.8471
641 1 2.97051 6.62864 10.6669
2356 2 3.05464 6.62327 12.2748
2734 2 3.68985 7.40562 9.44616
230 3 -0.407976 5.39842 12.3813
2227 1 34.6194 6.63015 10.576
1872 1 3.56534 8.11803 12.5778
2349 2 7.0656 4.13104 11.2106
1216 1 5.15937 7.34056 9.49527
598 1 7.27674 5.55756 10.8063
227 3 7.6351 7.75717 10.9567
484 1 4.31511 5.70313 12.4065
1898 1 9.01688 8.18241 12.7067
1392 1 10.1063 5.0939 11.7051
286 3 11.7909 6.50346 11.3032
672 1 12.5001 6.40708 8.96681
1501 1 9.74391 8.01174 9.97539
2152 1 12.8624 4.46625 11.5877
2363 2 16.0457 7.73115 11.1721
1136 1 14.6693 8.22021 10.7218
1068 1 16.3815 6.27484 10.514
1172 1 15.8646 7.3213 12.6861
857 1 20.1131 4.31117 11.9746
1128 1 19.755 7.14996 11.4415
2706 2 20.1936 7.9072 10.2007
530 1 19.2933 7.18929 9.15175
1738 1 21.7459 7.70292 9.69291
38 3 18.1052 5.39465 11.8241
1712 1 25.4839 4.13137 10.2305
516 1 22.7146 5.48427 8.79327
1061 1 23.0053 5.97403 11.2793
2976 2 22.8542 6.51991 9.84232
1608 1 24.0578 7.58184 9.47514
50 3 25.0031 5.29702 12.3148
2967 2 25.7229 7.56376 9.65369
264 3 30.1025 4.01289 10.6303
1723 1 26.0346 7.01861 11.006
1130 1 26.1526 6.26075 8.76922
2724 2 26.5278 4.70982 9.24011
1488 1 27.8765 4.70142 9.87265
91 3 27.9675 7.80632 12.2963
747 1 29.0608 5.3738 12.6157
865 1 30.7982 8.01741 8.60689
1122 1 33.0854 7.13839 8.65883
1084 1 31.2839 5.88598 10.0312
2579 2 31.7994 7.26563 9.73117
1862 1 34.1369 4.82438 8.93583
2419 2 34.4528 6.49115 9.10352
1933 1 32.0906 8.15566 10.8643
1299 1 2.6067 11.2404 9.15484
1851 1 2.9312 8.82225 9.59768
2146 1 0.136608 10.7499 9.40397
1396 1 -0.380892 10.4611 11.974
2030 1 1.96943 11.5501 12.2037
2983 2 3.78472 10.2447 9.61532
1124 1 34.9718 12.7873 10.5782
587 1 4.22198 10.7725 10.9481
460 1 4.64112 10.217 8.4778
2213 1 5.99978 8.49153 12.248
1343 1 7.81581 10.0249 9.65525
2929 2 7.96023 12.4614 12.4825
2113 1 8.67444 12.1274 11.0846
1079 1 12.1288 8.96722 10.3412
2415 2 8.77351 11.2324 9.74261
2351 2 10.7642 9.0675 9.67177
419 1 10.2465 10.6062 9.96834
536 1 8.73737 12.2556 8.67661
378 1 11.3964 11.0288 12.9354
937 1 15.3615 12.65 8.28933
163 3 14.2708 9.3238 8.46782
207 3 13.3798 9.69334 12.1201
1028 1 14.2966 11.238 10.2023
2937 2 14.4412 12.5581 9.55921
664 1 17.0873 8.87731 11.2028
1776 1 17.442 11.6213 9.37638
297 3 18.3805 10.7085 11.3202
1736 1 20.0395 9.46119 10.2409
347 1 20.1459 12.418 8.76592
240 3 22.261 11.5824 9.78802
428 1 22.8487 10.1783 11.5996
2879 2 22.3243 10.1998 13.0355
1166 1 28.9766 8.73946 10.252
75 3 26.1113 11.1591 9.0754
1139 1 26.1631 8.90872 9.15597
883 1 26.5089 11.6866 11.0836
2581 2 29.6766 9.15556 8.99954
1965 1 30.1964 10.5325 8.78689
2494 2 27.0558 11.3017 12.4102
1557 1 27.0355 9.88429 12.8861
440 1 30.7901 11.0837 11.9765
2632 2 34.6778 11.3714 10.4424
71 3 31.5079 12.1092 9.82467
1369 1 33.2304 10.8778 10.4523
4 3 32.6649 9.63756 12.4341
2684 2 0.619922 16.1502 8.70514
146 3 1.40463 13.9399 11.3834
638 1 1.96626 16.4624 11.8411
2110 1 0.383 15.2847 9.89761
499 1 3.31868 14.0525 10.2458
666 1 5.13047 13.2613 8.5407
1957 1 4.34795 15.5524 8.4618
2402 2 4.59666 14.4057 9.63057
921 1 5.65833 14.7703 10.5997
56 3 6.84315 16.1865 11.7718
2050 1 8.1085 16.8735 9.95418
2521 2 10.993 15.7391 10.5789
1948 1 9.94281 15.3108 11.5569
924 1 11.1316 14.7472 9.26909
1163 1 12.4394 15.8606 11.1717
1813 1 13.0125 13.1221 9.24401
1436 1 14.9685 13.7084 10.5973
2850 2 15.0746 13.7188 12.1907
728 1 16.5614 13.8154 12.4905
1811 1 14.43 15.1779 12.6996
2589 2 13.1555 16.1764 12.6915
1669 1 19.2659 13.0344 11.1295
2578 2 19.5524 13.5285 9.74082
2190 1 18.16 14.2718 9.1662
1625 1 20.5995 14.79 9.768
1097 1 18.0425 16.5879 11.2578
1960 1 18.494 16.8721 8.71233
1529 1 21.6393 15.817 11.7418
2606 2 22.0138 14.8506 10.6742
2330 1 23.0869 15.5163 9.73589
1798 1 22.4381 13.4587 10.913
1911 1 26.4545 13.5787 9.03951
1113 1 26.19 16.3512 11.1244
1587 1 27.1421 16.0301 8.78826
358 1 29.4374 14.8969 12.0104
2738 2 27.2096 16.9651 10.0701
589 1 28.6216 17.3605 10.3898
258 3 29.4807 17.3135 12.7002
2225 1 34.8156 15.0908 12.5459
2460 2 30.7863 14.4504 12.4991
1922 1 31.7746 13.8141 11.4384
1826 1 32.315 16.7262 9.5556
32 3 33.3764 14.9613 10.3843
517 1 1.024 17.5437 9.35277
2339 2 2.13164 18.6734 9.31737
2083 1 1.51548 19.8831 9.84652
2240 1 3.30094 18.1546 10.1421
869 1 4.17892 20.3226 11.3076
1138 1 5.6249 18.1197 11.2437
2376 2 4.31768 18.8168 11.3558
1316 1 7.37686 20.4565 9.41768
766 1 7.747 21.0277 11.8035
985 1 10.7326 17.1249 9.89442
2493 2 8.34345 20.4143 10.5397
2600 2 9.21552 17.7747 9.55728
2283 1 9.00554 19.0143 10.7462
1835 1 11.691 20.2512 9.36985
1958 1 9.6306 21.4264 10.0148
1556 1 11.5466 20.9209 11.6937
2513 2 11.1944 21.4435 10.263
552 1 16.2443 17.6931 9.70034
2188 1 13.9059 21.3375 8.81455
2047 1 14.65 20.3712 10.9632
1684 1 16.3014 21.0889 9.02176
1052 1 13.7376 17.5175 12.654
2895 2 17.6303 17.3644 10.0869
1304 1 18.3561 18.9243 10.3819
2683 2 18.6884 19.6459 11.7053
430 1 20.0788 19.0475 12.2965
1258 1 19.1935 21.2105 11.3058
1494 1 17.6112 19.6879 12.6965
2856 2 21.3474 19.4668 13.0425
802 1 22.377 19.8358 11.8461
2980 2 23.8971 20.2619 12.3374
1274 1 22.6048 21.32 8.60104
2011 1 24.5962 21.0946 11.3697
2126 1 26.496 20.708 9.1648
1618 1 26.36 18.2022 9.5331
1134 1 29.3352 20.6781 11.2795
319 3 29.9547 21.0252 8.9654
2861 2 28.4481 21 12.4426
2066 1 31.302 19.0044 8.84565
2774 2 32.4241 18.1679 9.29465