ITEM: TIMESTEP
1610000
ITEM: NUMBER OF ATOMS
2999
ITEM: BOX BOUNDS pp pp pp
-4.1210882029911744e-01 3.4817508820294407e+01
-4.1210882029911744e-01 3.4817508820294407e+01
-4.1210882029911744e-01 3.4817508820294407e+01
ITEM: ATOMS id type x y z
2213 1 0.705945 1.74216 2.8093
1210 1 2.85448 3.37139 1.57787
62 3 3.04052 0.907113 1.83538
2635 2 4.31612 3.5809 1.09858
1642 1 4.99166 2.23076 1.05645
2379 2 7.40611 1.07191 3.49554
1989 1 8.11656 2.25205 2.92616
2179 1 7.07151 -0.0467147 2.41007
211 3 8.94568 2.01234 0.760776
2932 2 12.2133 0.229556 1.10569
646 1 10.8825 0.954593 1.10234
575 1 12.3119 3.1575 2.44198
405 1 10.1685 4.61056 3.05807
1696 1 13.2347 0.735014 2.18792
2748 2 13.011 2.00893 3.37778
486 1 14.4802 2.33065 3.68994
286 3 16.3799 3.69419 0.257575
1436 1 13.0883 0.159802 -0.286524
1198 1 17.656 1.88248 1.08669
595 1 19.6418 2.86072 2.19832
2728 2 18.5856 1.67433 2.24453
1281 1 19.354 0.312538 2.24834
2416 2 21.0603 2.76317 1.37177
2268 1 17.6658 1.62147 3.50401
2170 1 20.5416 2.33893 -0.114824
227 3 18.2718 -0.272035 0.170596
519 1 21.9607 1.58943 1.68784
267 3 24.2733 3.20894 2.32716
597 1 24.3168 2.10288 -0.0293013
947 1 25.8099 1.78739 3.37933
2808 2 27.9209 3.72351 1.19281
832 1 27.8363 2.50701 0.440571
2242 1 28.4478 3.50574 2.71595
2088 1 26.4006 4.13092 1.54433
1828 1 30.3282 0.913907 -0.0946698
2681 2 34.61 2.23323 2.23093
972 1 34.554 1.37396 0.828962
2118 1 34.6859 3.58646 1.68203
245 3 31.2337 0.925286 2.69682
1203 1 31.6505 2.93829 0.941109
550 1 33.3904 1.91457 3.05992
2737 2 33.6438 0.325985 0.132779
1238 1 30.7172 2.84285 3.62724
1532 1 32.647 -0.353319 1.10843
292 3 1.41258 5.1484 2.15439
1702 1 0.238678 7.33607 2.62734
932 1 3.42291 6.47025 2.88203
2304 1 1.55343 6.44841 -0.240068
623 1 4.32098 4.38646 -0.216579
1075 1 5.10876 4.53845 2.21757
2448 2 6.88004 7.54857 2.02006
945 1 6.81231 6.6469 0.680217
1370 1 6.02317 6.6524 3.00502
2578 2 4.69844 5.70717 3.31091
2663 2 7.74608 5.44918 0.140614
990 1 8.18833 4.64934 1.33107
340 3 8.11228 4.67978 3.70021
404 1 8.30714 7.41399 2.63655
2662 2 11.6755 4.57229 3.04757
23 3 10.7193 7.73475 1.19384
1048 1 12.3219 5.49828 1.9698
2223 1 11.5738 8.05465 3.41523
705 1 9.1723 6.29613 -0.140607
1866 1 13.0576 7.34035 0.636729
2775 2 13.7125 6.33788 1.5921
2254 1 14.7558 5.3722 1.19233
2197 1 13.9525 7.11463 2.96466
153 3 16.6355 8.32038 34.5938
1791 1 21.6792 4.06186 1.31451
531 1 17.1865 6.95719 1.21127
1623 1 17.3118 4.73816 2.52001
2854 2 17.6893 6.24597 2.42954
2225 1 19.3916 6.42743 2.33003
2545 2 20.4643 7.38257 3.02506
2220 1 21.6914 7.37023 2.16288
128 3 22.3804 6.09017 0.341157
1307 1 24.3234 5.4816 1.48267
100 3 24.7171 7.52325 3.20282
2616 2 25.7618 5.53571 0.900566
2231 1 24.1455 7.5213 34.7269
2793 2 29.7835 3.99181 3.4523
1628 1 28.6764 4.92931 0.631456
35 3 28.9233 6.82387 1.6712
1773 1 26.5157 6.68536 1.53097
480 1 27.8044 6.25393 3.81694
1516 1 30.2687 5.28339 2.88756
2661 2 34.5222 7.81044 1.57162
1251 1 31.1433 7.71943 2.30819
1733 1 33.8357 6.71882 0.86457
33 3 32.443 4.99967 1.40223
566 1 33.0232 5.32959 3.72858
1215 1 33.4643 8.71643 2.41286
1091 1 2.35142 9.70379 1.24374
2394 2 1.21324 9.74296 0.200696
1540 1 -0.0647595 8.85975 0.642187
628 1 0.873772 12.6132 3.46348
72 3 1.94063 8.70473 3.45438
1231 1 0.620524 10.9509 -0.434389
1615 1 4.1531 12.2374 2.24534
1565 1 6.35706 8.90562 1.7724
373 3 5.15902 10.7709 0.849097
1627 1 6.90666 12.1466 0.30267
2028 1 8.89116 11.9413 1.87344
632 1 10.3067 9.875 1.92302
2968 2 9.45934 10.8163 1.07788
1220 1 8.6439 9.76435 0.266779
74 3 12.4632 11.1024 3.06016
926 1 10.3809 11.5891 -0.0872156
630 1 13.3482 11.3509 0.987781
1040 1 13.8511 9.33527 3.83781
1616 1 14.6519 9.75926 34.5863
1236 1 13.9063 12.1352 4.31978
1413 1 19.8607 8.73051 3.49152
399 1 17.9466 10.2889 2.38007
2896 2 18.5375 10.6882 1.0402
1838 1 17.9731 12.1746 0.675376
596 1 20.0616 10.9655 1.11696
2313 1 18.1282 9.83036 -0.246787
151 3 21.1692 11.4648 3.02698
2206 1 24.9226 9.07529 1.3349
2527 2 24.5641 8.89953 -0.131381
704 1 23.4441 11.8683 3.40852
2885 2 24.8954 12.2847 3.14142
1491 1 25.4518 11.8301 1.78748
1396 1 23.2485 9.84637 -0.329205
858 1 27.6703 10.6177 3.00338
228 3 26.9014 10.4911 0.990347
1472 1 28.9478 9.3202 0.609102
877 1 30.1093 12.4693 0.338194
2840 2 31.9238 8.91851 2.73168
1280 1 31.6012 10.3039 2.45724
313 3 32.0301 12.3606 2.27531
1453 1 32.8056 11.1929 34.5281
1524 1 0.298192 14.3381 1.63892
2718 2 0.982811 14.1428 2.96976
2127 1 2.59513 14.2096 2.79498
1039 1 2.0641 16.1665 0.255866
2377 2 3.13116 17.3233 0.989808
2595 2 3.72693 13.0805 3.40543
2315 1 2.46336 17.7603 2.29676
2204 1 4.50805 16.8311 1.04539
2169 1 7.16272 14.4406 1.50179
2631 2 6.99573 13.6573 0.267259
209 3 6.80669 16.7751 1.78027
1104 1 4.86812 14.136 3.78457
223 3 8.85212 13.7216 3.31832
1441 1 8.72368 16.4981 2.79891
2347 1 10.7815 15.7064 1.51483
2745 2 12.0934 14.5844 1.91785
2856 2 10.1743 16.6774 2.54542
1617 1 11.3477 13.3767 2.42027
998 1 12.6524 14.4465 0.485836
2340 1 13.1622 15.1262 2.83701
232 3 14.8917 15.1625 0.675895
1893 1 16.6367 15.6879 2.40478
1953 1 16.9008 14.1802 -0.166422
2950 2 16.9607 14.9538 3.6871
565 1 20.7401 13.6824 2.51424
2796 2 19.7614 14.5083 3.20054
414 1 18.24 13.9638 3.20255
1529 1 19.7402 15.9442 2.79205
1157 1 19.8579 16.3606 -0.0947451
309 3 17.9035 17.4635 1.52464
758 1 19.4559 13.8295 -0.343009
2706 2 17.9784 13.221 34.748
2729 2 24.6134 15.2014 2.62235
1109 1 23.3742 15.7415 3.27909
809 1 24.7273 14.9041 1.19409
2286 1 25.1672 13.7912 3.38534
1438 1 25.836 16.1306 3.25698
187 3 21.765 17.2137 2.77003
2401 2 29.7247 13.8765 0.770136
2004 1 28.364 14.2198 0.109576
1257 1 29.7227 14.1289 2.21532
794 1 28.3 16.1105 3.63178
82 3 33.8779 16.4812 2.35503
770 1 32.6352 14.5247 1.6413
2669 2 32.3085 15.1325 0.231038
1703 1 32.5847 16.7085 0.091682
1469 1 30.6984 14.9952 -0.0187468
346 3 0.736392 20.4419 3.18393
411 1 1.64838 20.3149 1.18705
2278 1 2.98886 18.5006 -0.105467
2810 2 2.01235 19.8337 -0.189571
2162 1 4.77059 19.9722 3.79714
2272 1 5.61393 19.783 1.3877
2907 2 5.84893 20.0792 2.82777
641 1 7.17938 19.2091 3.28306
720 1 6.4023 21.6562 2.86163
1795 1 8.25836 18.045 0.576113
2814 2 9.6308 18.7468 0.522467
1957 1 9.57456 20.2289 0.886776
1932 1 10.4488 18.0959 1.7192
229 3 10.6606 21.1897 3.16507
435 1 12.5091 20.4989 1.92709
992 1 15.0773 17.4998 1.1569
1353 1 13.9213 18.2934 3.34561
2496 2 13.8552 21.1057 1.80159
2500 2 14.9943 18.4921 2.32905
1918 1 15.0227 20.0193 1.75964
526 1 16.465 18.559 3.08009
2603 2 20.1373 20.0334 1.7617
967 1 19.6955 18.6611 2.20946
461 1 20.935 20.2095 0.487691
2097 1 19.0049 21.0384 1.87891
1326 1 21.2119 20.2794 3.02658
1270 1 22.9385 17.6558 0.630294
2056 1 24.013 19.7767 1.71003
2946 2 23.8796 18.9032 0.522004
1826 1 25.3608 18.3203 0.154685
55 3 25.0307 19.9018 4.13839
654 1 27.4485 19.278 1.24826
56 3 28.4654 20.5614 2.70849
1301 1 29.8206 18.8338 3.24819
931 1 26.7406 18.2988 3.84131
2382 2 26.9631 18.6551 0.0247037
1002 1 30.4798 18.1921 0.779865
1354 1 31.6805 17.3272 2.92906
1045 1 34.1693 19.0768 2.03613
2464 2 30.8756 18.4164 2.20096
2530 2 33.1457 19.9329 1.25872
1559 1 31.7317 19.7883 1.96397
774 1 33.1011 19.7707 -0.247628
2490 2 2.23686 23.8488 2.19812
2066 1 3.16361 24.6051 3.15661
1541 1 1.47576 22.9109 3.14107
724 1 2.90959 23.2955 0.944731
689 1 0.999874 24.7092 1.50627
2817 2 1.22577 25.9092 0.48841
1716 1 7.01877 23.8006 1.92075
2650 2 7.42166 22.8493 3.11024
2741 2 7.08225 23.6226 0.308595
42 3 5.12826 25.3251 3.82121
521 1 7.02333 22.0999 -0.0410895
498 1 5.90281 24.5409 0.0233827
1793 1 8.41434 24.1777 -0.17691
1103 1 8.81411 22.488 3.04736
537 1 11.8449 23.9649 1.8816
2674 2 12.0369 24.1005 0.416241
981 1 11.5002 23.0725 34.721
1903 1 14.2302 21.6535 0.276747
1118 1 14.2763 22.3036 2.74592
2271 1 13.7057 24.0822 0.370728
1230 1 16.0799 23.2025 0.810863
2875 2 14.9217 23.08 -0.105173
173 3 14.1532 24.9099 2.77135
899 1 16.1377 25.4073 3.67987
341 3 18.2335 23.0005 1.45121
888 1 20.1874 24.5775 1.65255
401 1 18.0912 26.3132 0.639342
2742 2 21.5893 24.0451 1.45914
1204 1 17.7802 23.5266 3.83898
361 3 22.6278 21.7883 -0.0705435
2654 2 21.5705 21.6573 3.65241
571 1 21.9476 23.9306 -0.0484173
883 1 21.7654 22.5651 2.09489
2062 1 22.6006 24.9351 2.23942
1093 1 25.0798 22.8712 1.77125
2520 2 25.5293 23.4076 0.19786
2552 2 26.0233 23.1942 3.10587
611 1 26.7294 21.8485 3.34219
1184 1 29.2816 21.5734 0.897419
2050 1 25.7988 24.8592 -0.0725692
1845 1 26.8919 24.4474 2.75692
244 3 28.4465 25.2238 1.3285
1631 1 27.0784 22.817 0.324635
1906 1 29.9595 24.4017 2.7043
1352 1 29.891 22.2239 4.23128
2971 2 28.5754 22.459 -0.114525
1644 1 -0.183737 22.548 -0.101802
2784 2 30.5036 23.5711 3.83705
1213 1 33.5584 21.4495 1.60766
2861 2 33.6325 22.624 0.5471
1373 1 33.6889 23.7764 1.7328
2366 2 33.118 24.4555 3.02463
866 1 32.4991 22.8042 34.8641
1177 1 32.5657 25.8158 2.88319
1427 1 32.0689 23.3058 3.66385
274 3 1.13643 28.6104 2.38947
771 1 2.03151 27.066 1.09945
1061 1 3.03244 29.9959 0.766245
2311 1 0.0871271 26.5832 3.43402
2012 1 -0.1852 26.4309 0.168439
2413 2 1.89736 30.3651 -0.389676
748 1 0.652845 30.0594 0.409444
1437 1 5.47713 29.1789 0.979447
1807 1 5.86884 26.9114 2.24987
2604 2 5.87451 27.6064 0.872878
633 1 7.45754 27.7321 0.390337
725 1 8.12427 30.0351 1.30381
2876 2 8.65473 28.6603 0.901345
2611 2 4.53604 30.445 1.10111
1659 1 4.77021 30.9567 2.52384
2238 1 5.0913 27.1445 -0.29727
916 1 9.03807 27.8675 2.31624
1986 1 12.2615 29.4113 2.77677
1867 1 9.82648 28.5352 -0.0847183
285 3 12.2704 29.4169 0.566803
890 1 12.9647 27.6734 34.5314
423 1 14.7599 27.474 2.06659
2982 2 15.4412 28.514 1.22542
1409 1 14.7636 29.7407 0.757026
1864 1 16.1214 27.8804 -0.0783978
1152 1 16.6974 28.9127 2.13865
163 3 19.3679 26.72 2.418
2301 1 19.1533 29.0475 1.96536
2898 2 17.9192 29.9333 1.8335
198 3 21.3206 29.208 0.596462
1159 1 20.446 27.4922 34.4151
1900 1 23.1073 26.4969 0.222798
506 1 21.6512 27.2514 2.1075
2619 2 22.9253 26.5229 1.77313
395 1 24.2513 26.8698 2.37909
674 1 23.3105 29.7204 1.59946
2033 1 25.5271 29.4205 2.65364
290 3 25.3553 27.0286 0.504204
1544 1 29.417 28.8243 1.47002
1664 1 29.8444 26.6689 0.120436
2865 2 28.9741 27.9659 0.148238
1973 1 27.5393 27.5186 0.564873
618 1 27.8803 30.0977 3.34535
2484 2 26.614 29.3552 3.91047
2997 2 30.6876 29.721 1.94225
2071 1 31.2184 29.3299 3.28932
989 1 33.891 28.2224 1.52739
2668 2 33.6868 27.4702 0.229141
2288 1 32.6284 26.4272 0.124699
782 1 31.6107 30.1178 0.790678
2074 1 1.71335 33.5912 1.89839
2412 2 1.05758 33.3534 3.2309
1182 1 0.790108 31.7677 3.38032
21 3 3.61156 33.4295 34.4397
875 1 4.75341 34.2889 1.46211
1816 1 4.88901 31.4523 -0.0249054
2685 2 6.02192 33.8983 2.16884
1402 1 6.90783 32.872 1.49187
350 3 6.72106 31.0233 3.63549
83 3 7.78083 31.7893 -0.429872
2234 1 9.9712 32.924 1.9698
2599 2 11.074 32.8722 0.773983
1346 1 12.0909 33.9601 1.39774
2235 1 11.8883 31.6637 0.656885
2506 2 9.92738 32.7716 3.58491
1819 1 10.2822 33.3666 34.8212
1284 1 14.3476 32.3731 2.17945
2894 2 14.748 32.1301 3.60498
257 3 15.6439 31.9906 0.237178
1824 1 14.8008 30.7111 3.97486
2282 1 16.2884 32.7621 3.92066
1618 1 17.5957 30.6156 0.592254
835 1 17.5273 33.1125 1.68471
2882 2 17.7231 32.5199 3.04606
699 1 17.7497 30.9418 3.09139
2423 2 21.322 32.5977 -0.143847
1742 1 21.488 32.4388 1.39736
1200 1 18.7919 33.2618 3.80118
322 3 21.6182 34.4261 2.70709
2797 2 24.3621 30.4366 2.31554
778 1 23.7143 34.4862 1.15783
593 1 23.9703 31.3074 3.56603
2287 1 25.0929 31.511 1.3427
2905 2 23.9003 33.9901 -0.242983
2666 2 25.5088 31.3757 -0.223821
1961 1 27.0838 -0.451488 2.86634
1278 1 29.5577 34.368 2.30863
1137 1 27.7634 34.059 0.519527
2927 2 28.1734 34.0987 1.94371
711 1 27.7828 32.487 2.5153
2608 2 28.6902 31.4319 3.27004
1405 1 29.8531 31.2251 2.10019
1625 1 -0.484251 33.8397 3.23553
177 3 31.4035 33.1464 0.811867
859 1 33.2859 32.1157 1.88174
2618 2 33.506 32.8686 3.15799
467 1 32.316 33.7066 3.57389
306 3 33.7676 30.5996 6.47665e-05
761 1 3.46937 1.17756 4.26167
348 3 1.20081 0.979637 4.89534
2333 1 2.19976 0.375277 6.84681
1570 1 -0.318073 3.00382 5.21695
1404 1 5.98267 1.5447 3.906
2138 1 4.85829 2.36288 6.06473
2380 2 4.85155 1.30256 5.05368
2330 1 8.15802 0.389437 4.5721
586 1 7.52511 2.72978 7.95463
846 1 5.13448 -0.0902775 5.67193
2051 1 7.55557 3.60359 5.53641
707 1 12.0446 1.464 4.38043
2469 2 8.32686 3.27611 6.8283
463 1 9.51564 2.5014 6.39678
273 3 10.2981 0.60788 5.54799
540 1 12.7027 1.97218 7.42329
52 3 16.5543 3.45892 4.50228
1573 1 14.8106 3.35745 6.61904
2555 2 13.8585 2.92105 7.7251
1502 1 15.0373 -0.299644 5.70896
2834 2 19.3205 2.2826 6.52755
2255 1 19.0985 0.812052 6.04483
806 1 20.7852 2.60208 5.95428
429 1 18.3823 3.32595 6.09927
1500 1 19.5948 2.35715 8.15176
1306 1 21.491 0.542778 4.68088
357 3 17.1089 -0.0892724 5.01557
451 1 22.5919 2.87433 4.19267
2565 2 22.0092 1.91079 5.1603
1214 1 23.0677 1.62876 6.31559
2732 2 24.1983 2.58776 7.04108
478 1 25.2289 1.67475 7.58
1244 1 25.0088 3.26871 5.79514
1619 1 23.5587 3.54589 7.92211
1138 1 25.657 -0.395479 4.79838
2362 2 26.4706 0.56353 3.9739
1401 1 27.9063 1.03888 4.70458
2914 2 28.9971 0.873058 5.92113
2171 1 28.8199 1.91214 7.03194
1729 1 27.455 -0.0602918 8.43579
928 1 30.3627 0.818867 5.38883
1340 1 34.2249 0.412175 5.89517
242 3 32.7507 2.21185 5.4213
1158 1 31.9824 2.30776 7.53403
1095 1 3.30211 4.18618 7.85187
403 1 1.30775 4.72814 4.34526
969 1 0.972208 4.07982 6.83144
2719 2 0.338122 4.33776 5.40357
2571 2 1.79664 4.48024 8.15372
1101 1 0.896194 8.24413 6.82102
860 1 4.89992 5.22256 4.66436
339 3 5.38843 4.38012 6.85244
2657 2 6.14397 7.61337 7.32112
1855 1 7.13527 6.41487 6.97926
1362 1 4.84191 6.83646 7.64092
1668 1 12.4926 4.72339 4.259
1998 1 8.99686 4.88799 7.24921
2969 2 8.80847 6.36779 6.96954
2265 1 9.19291 6.69242 5.58098
578 1 11.9058 5.92683 7.3198
199 3 11.6877 8.01094 8.0083
1852 1 9.24494 7.2611 8.12427
2859 2 12.9924 8.06597 3.92719
1567 1 13.1103 7.45242 5.38632
12 3 13.6291 5.26571 5.92265
1915 1 15.6684 5.75108 5.03833
2622 2 16.7404 6.79176 5.36679
1976 1 16.2906 8.24425 5.69415
929 1 14.0973 7.95751 8.31702
1153 1 17.4261 7.01334 3.8608
862 1 17.6625 6.15542 6.40212
813 1 20.9906 6.65719 4.37424
2316 1 21.1486 8.27043 6.47682
2923 2 21.9616 7.10957 5.69071
1052 1 22.002 5.85005 6.49309
1817 1 24.998 5.20015 4.03012
2649 2 25.2195 4.82812 5.50644
1333 1 24.7248 5.65177 6.6432
1115 1 23.1303 7.82534 5.05444
864 1 29.1956 4.32618 4.92424
2285 1 26.8353 4.76934 5.75546
1172 1 28.6736 6.42089 6.28539
2801 2 28.082 5.68284 5.13463
65 3 30.1719 3.96314 7.43476
5 3 29.1525 8.37925 7.38359
1652 1 30.3686 6.2478 8.23953
2151 1 32.2567 4.32194 5.90006
2167 1 34.4618 5.46235 5.78275
2367 2 32.9783 5.44894 5.19779
591 1 32.2752 6.77376 5.84937
2835 2 32.3873 8.33346 5.85985
1422 1 34.2677 8.06453 8.54002
2215 1 0.593149 10.3889 4.57316
20 3 3.00242 12.0215 7.07647
2472 2 0.298606 11.8495 4.75546
2016 1 3.33851 12.4335 4.71599
1308 1 4.00245 9.03817 4.21198
2109 1 3.89412 9.76707 6.68044
1146 1 0.666457 12.6265 5.9827
1081 1 5.8615 8.40705 5.8693
2092 1 7.13942 12.3225 4.0905
2450 2 7.11955 11.2223 5.02819
2643 2 4.76368 9.46779 5.43935
2019 1 5.55619 10.7809 5.05451
415 1 7.39487 11.7242 6.5823
672 1 7.97923 10.0318 4.82118
2370 2 6.74909 12.3719 7.98198
919 1 5.24393 12.2351 7.99579
277 3 9.57046 8.69815 4.34775
2305 1 9.98246 9.64822 7.12797
1096 1 10.7826 10.7035 4.9071
2359 2 10.9942 10.5479 6.43472
552 1 10.7896 12.0416 7.07871
741 1 12.4209 10.082 6.70098
118 3 14.4286 9.54206 6.01822
1671 1 16.2546 11.7547 5.31723
1069 1 15.0965 11.0812 7.75196
29 3 17.0254 12.4922 7.84454
2915 2 15.1861 12.7232 4.93993
53 3 17.9883 9.6892 4.59941
991 1 18.2851 10.2635 6.68593
1389 1 20.4977 10.2331 7.93198
2214 1 19.7454 11.8606 4.64334
2252 1 21.1753 12.8427 6.55743
2848 2 18.8724 10.016 8.08662
2722 2 21.6757 9.17653 7.73328
1165 1 25.9306 9.14869 4.32548
234 3 24.9275 10.6285 7.41081
1841 1 23.7761 12.5591 6.5335
1366 1 22.8474 10.001 7.31216
574 1 25.8754 11.7797 4.4309
756 1 26.3998 8.57436 7.72258
2819 2 26.8096 10.3872 4.2402
2264 1 27.6428 10.4683 5.56056
2758 2 28.1169 11.6326 6.71906
446 1 29.0101 10.7704 7.59008
718 1 26.8197 12.1254 7.32507
1589 1 28.7661 12.8066 5.93078
1738 1 33.8148 8.7458 6.13389
2762 2 -0.273748 8.99245 7.28088
1076 1 -0.343154 10.4247 7.63873
1847 1 32.0014 8.82356 4.40035
542 1 31.4457 8.78221 6.919
396 1 33.9233 12.0637 4.69136
1568 1 32.5466 11.5786 6.72591
2568 2 32.5881 12.3739 5.4928
2093 1 0.519997 15.0274 4.1184
485 1 2.66124 16.3103 5.8786
308 3 0.491079 14.9144 6.38849
653 1 2.80568 14.3648 7.36685
2916 2 3.49508 15.5334 6.8071
1931 1 0.0592905 17.2321 6.58022
609 1 3.94764 16.3903 8.12278
1938 1 5.17957 16.5679 3.87477
1317 1 6.94491 15.019 4.87536
2831 2 5.53049 15.3333 4.63108
1513 1 4.92156 15.1873 6.11959
1934 1 7.44755 13.7223 7.96031
87 3 8.48383 16.0372 6.63631
2030 1 10.9526 16.7985 3.78469
2976 2 10.6197 13.5595 6.59806
1127 1 9.64797 13.855 5.43513
1000 1 10.3564 14.407 7.82637
868 1 12.1887 13.881 5.95774
489 1 15.8038 13.8017 3.8506
2158 1 14.8277 13.6187 6.20587
2794 2 13.4796 14.2358 6.83605
515 1 13.7765 15.7213 6.67138
995 1 13.1847 13.7282 8.2597
117 3 12.9364 16.7687 4.79105
2653 2 19.7825 12.9925 5.65476
1636 1 17.2778 15.7633 4.94992
905 1 18.6954 13.2677 6.67833
2014 1 17.3763 16.2378 7.84828
2174 1 19.9673 14.4262 4.89088
636 1 20.5015 16.4297 8.102
167 3 18.9362 16.8247 6.35148
2984 2 22.5747 13.1553 7.11298
1645 1 22.5578 14.7548 7.13397
2684 2 23.5481 15.8266 7.71748
1536 1 23.4873 17.01 6.68871
1133 1 24.875 15.3309 7.99424
2651 2 26.9941 16.8216 4.00588
105 3 29.3645 14.3606 4.44466
621 1 27.6527 16.3993 8.03639
2203 1 26.8474 16.3514 5.58223
354 3 26.7698 14.15 8.34694
2257 1 31.5255 12.5096 4.4315
1207 1 30.8038 15.6184 5.88233
2759 2 31.9277 15.0326 6.73441
529 1 32.8053 13.9962 5.89806
1169 1 32.8737 16.0848 7.1677
1298 1 31.5058 14.1613 7.9976
73 3 3.28566 18.0901 4.32345
1562 1 0.98191 18.7643 4.72525
2740 2 3.26349 20.3851 6.52843
2419 2 -0.226934 18.1039 5.38502
1031 1 2.11729 20.182 7.63971
1711 1 2.60963 21.0412 5.37631
1963 1 4.00021 19.0832 6.44789
2474 2 7.97797 19.392 4.78452
133 3 6.36469 18.9798 7.20092
434 1 7.62918 17.9846 5.45281
1747 1 7.25723 20.452 5.66404
1479 1 4.38847 21.2854 7.25125
1434 1 9.40369 19.6267 4.38001
914 1 10.5045 19.9527 7.05841
2717 2 11.1789 18.5785 7.29059
2150 1 10.0142 17.6647 6.88237
1675 1 12.1808 21.1226 5.45045
2481 2 11.1142 21.3676 6.41425
1538 1 12.4872 18.2605 6.6039
304 3 15.109 17.3979 7.52643
881 1 16.2299 20.6039 4.70088
2630 2 16.5551 19.1004 4.70075
2122 1 15.6099 18.3165 5.58575
1122 1 21.1748 17.3968 5.43458
2040 1 17.7399 20.8045 7.39681
763 1 18.0072 18.7071 4.97416
656 1 20.3506 20.2766 5.98258
2989 2 21.5811 20.4831 6.81612
248 3 18.5618 21.4338 5.34502
1595 1 20.8855 19.9568 8.35299
607 1 22.8798 21.4158 4.27249
1499 1 23.4454 18.092 4.46187
2767 2 22.5535 17.9651 5.69466
2227 1 22.6203 19.3198 6.61254
1806 1 25.3431 20.499 6.38227
543 1 22.2138 21.7963 6.95247
2581 2 27.5561 17.3528 6.83147
2356 1 26.4653 18.4821 7.0159
385 1 28.7921 18.0199 6.26578
2733 2 26.6247 20.1924 7.11636
546 1 27.9575 20.5091 6.46596
201 3 29.9824 21.0024 6.59674
963 1 34.0551 17.459 4.41784
2303 1 34.2715 21.2015 4.54946
479 1 34.0886 19.242 6.08672
159 3 30.8204 17.9388 5.22751
2652 2 33.4183 20.6557 5.61339
1292 1 31.9698 20.3305 5.52345
698 1 31.5029 18.282 7.68339
997 1 33.3077 21.5641 6.9079
80 3 33.8566 17.7647 8.60288
328 3 1.82348 23.1914 5.45731
1749 1 0.870913 25.4182 5.63234
1044 1 0.30938 22.62 6.93394
2958 2 -0.298137 25.7602 4.70823
1476 1 4.23699 23.692 6.12566
683 1 7.00031 23.7642 4.24786
2967 2 4.63576 22.925 7.35519
389 1 6.16325 22.9315 7.78994
193 3 8.02762 23.1836 6.27137
384 1 9.99151 22.085 5.76255
1609 1 8.85799 25.2368 6.60458
2195 1 11.4799 22.2923 7.69219
1374 1 10.9886 25.536 5.20833
2870 2 12.7152 25.4947 5.30736
780 1 13.1365 25.9568 6.71233
1089 1 13.107 24.0453 4.83181
303 3 14.2521 22.0507 5.08688
2193 1 14.8948 22.5594 7.10284
1999 1 16.774 23.8497 8.35751
2567 2 15.4755 22.8473 8.4231
1351 1 17.0961 24.6848 5.98173
2523 2 17.3976 24.9475 4.41793
2329 1 20.6423 22.6765 4.28936
2634 2 17.9163 24.2798 7.34737
559 1 18.9577 23.1704 7.14445
912 1 18.4184 25.6215 7.8039
44 3 21.3622 24.0505 7.92341
1385 1 25.0956 23.543 4.22361
51 3 24.2502 22.699 6.23294
1891 1 22.9569 24.5868 6.44146
2852 2 22.7594 26.1401 6.41606
115 3 25.379 25.902 4.28792
934 1 26.1608 23.2639 7.11079
1701 1 25.9327 25.6106 6.62497
2425 2 26.8743 24.5526 7.14413
1121 1 28.1509 24.778 6.12066
2402 2 29.7773 24.5095 6.54796
1894 1 30.5084 24.5458 5.10747
1134 1 30.4428 25.639 7.28503
1429 1 29.7941 23.0947 7.14791
523 1 34.1925 24.3658 4.14574
2501 2 34.2399 22.6573 7.66341
1607 1 33.4476 23.9861 7.74665
424 1 2.83589 28.8655 3.83016
129 3 1.45088 27.0941 7.50243
2711 2 3.12147 29.4278 5.25676
627 1 2.30421 28.7094 6.36241
2334 1 7.72594 29.1953 3.98331
598 1 5.53488 26.7412 5.5312
1517 1 4.64337 29.0394 5.61041
2580 2 5.49087 27.9141 6.40828
544 1 6.82446 28.5909 6.83489
2017 1 4.81287 27.6191 7.814
2697 2 7.41678 30.1831 7.17869
2290 1 8.78158 29.9441 7.78407
2626 2 8.9141 28.293 3.80675
2683 2 11.5386 30.0154 3.94467
1525 1 10.2328 29.0164 4.1639
2368 2 9.79903 26.258 5.95163
430 1 8.92777 26.9178 4.67009
1082 1 10.2275 27.3704 6.88976
59 3 11.2584 29.5756 7.55513
721 1 12.2835 30.1546 5.27961
1047 1 13.0266 26.5525 4.30095
110 3 14.4217 28.4621 4.27133
2015 1 15.2573 29.4331 7.08391
2983 2 16.71 29.4317 6.4068
825 1 16.4979 28.6964 5.03253
793 1 15.1107 27.0643 8.16332
2954 2 14.8095 28.5298 8.3322
2077 1 13.2749 28.8191 8.40973
417 1 18.6214 25.8903 4.38085
2298 1 21.2729 26.2409 6.75825
280 3 19.3889 27.3924 6.70732
679 1 20.3019 29.2408 5.86578
1216 1 17.7943 28.8483 7.24245
732 1 21.7019 30.0431 7.75726
950 1 23.6154 26.7195 7.65882
1692 1 23.4501 26.7094 5.17016
1018 1 24.3659 29.2696 7.35706
2418 2 24.1926 28.1226 8.28477
742 1 26.7409 27.8322 3.88827
1803 1 30.2944 28.7463 8.10967
2132 1 26.2706 30.0766 5.17033
1167 1 -0.37133 29.5754 4.14648
217 3 33.1209 28.0077 3.72892
7 3 32.6706 26.1576 7.35467
1424 1 34.5813 27.7581 7.74626
1394 1 33.7548 26.5263 5.37219
983 1 32.1871 28.3502 6.40798
2526 2 31.5902 29.3077 7.4188
2866 2 1.77367 34.5354 7.7627
657 1 1.73827 33.8055 4.53512
406 1 3.0317 30.9004 5.42561
1489 1 0.182327 31.5769 5.79895
2372 2 -0.156012 31.035 4.4981
1812 1 2.24588 33.127 7.45034
2124 1 0.108663 34.1892 7.89978
178 3 1.74763 31.059 7.873
142 3 3.78542 33.0079 5.37647
933 1 5.65956 33.2693 3.65624
1383 1 7.19049 31.1808 6.06346
1294 1 5.2079 32.5559 7.36641
372 3 7.06285 33.7306 5.74583
1293 1 6.46374 30.6433 8.44799
1435 1 8.32921 34.17 7.61709
1766 1 10.7593 31.3673 3.74095
2152 1 10.6968 33.8292 4.36671
709 1 8.51549 32.6736 3.93847
1783 1 11.6858 31.8477 7.5813
2504 2 12.1522 33.1977 7.94981
1269 1 10.8013 34.4727 7.98148
590 1 12.9403 33.995 6.81568
900 1 13.8819 33.0001 4.68532
1470 1 15.1213 32.618 6.88389
2587 2 14.3012 33.7006 6.06161
2820 2 16.7226 32.2794 7.16494
1330 1 17.0009 30.991 6.29322
2435 2 21.0226 30.4302 6.3267
1412 1 17.5571 33.3651 6.52996
1068 1 20.3959 31.7798 6.61528
235 3 20.1938 33.9981 6.72067
1980 1 22.3481 33.0541 4.56233
965 1 22.4632 30.5757 5.48523
168 3 26.0159 30.9053 7.1741
116 3 24.5151 34.3932 6.69796
1962 1 22.2783 34.2054 7.6034
2364 2 23.2399 31.8925 4.94407
1988 1 24.3204 32.2432 5.96847
440 1 28.8143 34.5978 6.42961
1658 1 29.5057 31.9657 4.40176
1746 1 26.9752 32.9334 7.3482
2845 2 27.9857 33.9364 7.73062
637 1 29.0974 33.0827 8.45442
2962 2 33.9852 34.8279 7.15902
863 1 33.6124 31.7194 4.29893
2141 1 31.3686 30.7498 7.00359
370 3 31.2544 32.6504 5.72472
1139 1 33.0645 33.6537 6.87731
1431 1 1.24759 3.33948 9.09309
1492 1 -0.0434387 2.22373 10.9176
1724 1 2.78171 0.832163 11.3745
2601 2 3.30079 0.300378 10.0141
203 3 0.302872 0.57173 12.3207
2537 2 -0.270269 3.1609 9.81635
2244 1 1.95297 -0.258676 9.29688
69 3 3.11718 2.65932 12.7447
1156 1 4.26778 1.0724 9.21184
260 3 6.26514 1.9907 9.68708
2959 2 8.08589 3.77628 12.0276
2308 1 7.87261 2.35948 11.4476
501 1 6.27885 -0.291018 11.0016
188 3 8.40953 0.197592 12.1925
186 3 11.0218 1.67567 9.47437
729 1 9.10054 0.105375 9.77639
737 1 10.6592 0.893065 11.6791
842 1 10.9875 3.9659 8.93959
1003 1 14.9047 2.36015 8.90295
690 1 13.1634 1.33525 10.6171
755 1 14.4962 3.54592 11.121
2769 2 14.4563 2.10959 10.5325
1356 1 15.8603 1.27543 10.9757
2853 2 15.9964 0.0579933 12.0604
447 1 18.845 2.98211 10.3637
2427 2 19.9606 3.50637 9.28343
2482 2 19.0606 3.00912 11.9702
1563 1 17.6242 -0.134254 11.9831
1612 1 20.0521 1.93885 12.3854
1669 1 21.3182 3.20446 9.80971
1 3 22.4232 1.90438 11.3126
913 1 25.2927 1.88649 11.2552
667 1 23.0039 0.282731 12.656
2068 1 22.42 0.279567 9.75932
576 1 22.7222 3.82295 12.4448
2879 2 26.6107 1.86264 11.9801
230 3 27.2319 2.1334 8.88237
1042 1 27.81 1.51234 11.1141
1148 1 30.1053 -0.273666 9.72311
299 3 30.1952 1.04837 11.3786
1781 1 30.1416 3.45125 11.5537
2032 1 26.8873 3.44835 12.6407
666 1 33.4034 0.450733 8.29451
1772 1 34.0863 2.73239 8.53518
2991 2 32.7435 1.77125 8.77362
2072 1 32.1661 1.61883 10.1394
271 3 2.85315 8.12054 8.45715
1740 1 1.4975 5.88111 8.57799
338 3 0.647092 6.39463 11.0558
416 1 2.73888 6.92522 10.8583
1878 1 1.27704 4.56498 12.3746
1861 1 5.82616 4.2475 9.59356
1147 1 4.22825 4.16171 11.5822
2710 2 5.41199 4.7829 10.9153
2335 1 6.67809 4.57223 11.8933
2337 1 5.32513 6.33374 10.768
2998 2 4.18721 7.45398 11.2498
624 1 4.3176 7.52592 12.7127
2022 1 9.2599 4.62793 11.5071
2753 2 11.8935 5.09715 8.68663
1376 1 11.7319 6.18031 9.81769
127 3 10.8134 6.22197 11.7748
1571 1 13.4925 4.36448 8.43959
1951 1 16.3567 7.47841 9.48735
2454 2 14.0537 7.83232 12.3776
1940 1 14.2873 7.42212 10.8635
2546 2 14.9661 8.04916 9.57924
2185 1 19.8066 4.96677 8.87826
1790 1 17.9644 5.69974 11.018
79 3 18.2464 6.64377 8.65739
2822 2 18.8717 5.80255 12.2393
2273 1 19.9796 6.97742 12.1335
1381 1 19.8513 4.52107 12.2288
246 3 22.9806 5.52739 8.5488
1181 1 24.5999 7.34271 9.1611
2906 2 23.4813 5.11087 12.2482
2009 1 24.9801 4.74925 11.6832
1811 1 22.9773 5.86517 11.0007
1854 1 25.0502 8.09708 12.1938
2182 1 25.8736 4.18884 9.24787
696 1 21.8 8.24622 8.95256
2702 2 26.0508 7.81691 8.95226
1055 1 27.0003 6.52826 8.91971
2813 2 26.4012 4.83087 12.343
904 1 27.2278 5.26896 11.0934
1946 1 28.3587 4.33709 9.0831
2621 2 27.0614 5.02847 9.47454
1100 1 30.2619 5.94217 10.8051
738 1 27.5922 8.61254 12.2878
2247 1 34.4813 4.5074 10.2425
1105 1 31.5207 4.28202 9.50093
439 1 32.2979 4.87255 11.8042
2886 2 30.6227 6.98948 9.57496
2391 2 30.9639 4.46157 10.8867
1943 1 32.1481 7.20691 9.65499
1268 1 34.063 7.82496 11.1247
2614 2 33.3629 8.2546 9.85308
2332 1 1.17925 9.16231 9.78503
1372 1 0.0544643 11.4112 10.0774
2460 2 1.3448 10.6492 10.0102
1705 1 2.46717 11.3679 9.22422
1941 1 1.87218 10.6409 11.6815
1785 1 6.67877 8.61577 8.28512
2194 1 4.4417 8.68222 10.3886
1814 1 5.37101 10.8029 12.4526
103 3 5.07636 10.9132 10.1782
2270 1 7.23826 11.5719 9.12114
1013 1 8.22476 9.20105 11.2068
250 3 8.60607 9.63267 9.03255
1419 1 11.0256 9.47169 9.74262
2730 2 11.7006 10.8207 10.1998
383 1 12.4481 10.8125 11.5839
418 1 10.6972 11.8786 10.0363
2720 2 8.75844 9.45276 12.6681
541 1 9.44836 10.8191 12.9114
2156 1 12.9862 10.9152 9.16941
2926 2 14.5244 11.073 9.19068
2172 1 14.9364 9.7069 9.99304
2125 1 14.968 12.1637 10.0624
25 3 14.6892 11.6699 12.6197
1641 1 17.0033 12.1218 12.5273
2912 2 19.9265 8.39914 12.7749
1970 1 18.6741 8.64226 8.55087
1686 1 18.399 11.0547 9.11153
1509 1 20.8294 9.1864 11.812
1822 1 20.5964 12.1277 11.6055
184 3 18.4659 12.5317 10.9185
307 3 22.8126 8.52952 10.9286
946 1 22.9641 10.8063 10.0311
2524 2 23.431 12.1993 9.79985
2792 2 21.8703 12.5518 12.2646
1879 1 22.3611 12.8025 8.64866
1459 1 24.8207 12.4465 9.19855
1063 1 29.8309 8.28346 9.70468
1768 1 26.4732 8.67832 10.1604
1968 1 26.0012 10.4853 11.9006
2440 2 26.3016 8.90962 11.7506
2512 2 27.1381 11.6564 11.6631
1994 1 27.9036 11.4659 10.3877
205 3 30.1028 10.5588 9.91742
1493 1 30.3362 10.9052 12.123
256 3 33.5178 11.8078 8.93157
2221 1 32.6116 9.58906 9.94314
2082 1 31.2606 12.3922 9.68246
2136 1 33.649 10.1748 13.0267
1908 1 33.1089 12.6898 12.3111
1022 1 1.56357 16.1315 8.98682
2933 2 0.604026 15.0689 9.75817
1316 1 1.47947 14.2569 10.68
2502 2 3.0226 16.8005 9.35722
785 1 3.49244 16.5578 10.7212
2222 1 -0.362077 16.1405 10.5882
269 3 3.36053 14.5103 12.0316
896 1 -0.181024 14.4252 8.65442
2562 2 34.6326 16.6825 12.2037
2389 2 6.20995 14.2161 11.195
1005 1 6.29068 15.6773 10.3128
464 1 7.66874 13.6448 11.3658
791 1 5.14435 13.2923 10.6267
2776 2 7.34767 16.6258 9.72416
1034 1 7.0283 16.984 8.28779
49 3 9.30201 13.6631 9.6178
2187 1 11.9032 15.1702 11.0275
1375 1 8.74333 16.0585 9.88653
2893 2 11.0855 14.9185 12.3454
1051 1 10.1291 13.766 12.2392
1865 1 10.2521 16.1981 12.8236
28 3 13.8407 14.6885 10.1642
1933 1 15.7238 15.9405 9.6229
445 1 14.3263 14.0763 12.439
2755 2 17.1855 15.663 9.26641
601 1 17.6987 14.2125 9.41788
2037 1 20.8741 15.8201 10.6528
2738 2 21.2447 16.6056 9.39651
2517 2 17.9388 16.9044 11.8417
1010 1 18.1172 16.6679 10.2408
1851 1 18.5729 15.6782 12.5319
1195 1 22.8931 16.3284 9.11352
1334 1 23.0373 13.0707 11.1623
2318 1 25.1588 15.1695 12.2965
2948 2 24.7403 16.7428 12.9564
938 1 26.1722 12.8225 11.8604
925 1 26.7768 14.8276 10.5385
2873 2 26.5189 14.5001 11.9685
345 3 28.9785 16.2327 10.4072
619 1 29.2379 13.8368 9.10116
894 1 29.805 16.9963 12.3816
1192 1 31.1364 14.6373 10.5597
2434 2 30.7061 13.7773 9.3811
368 3 31.5567 14.5849 12.8846
629 1 0.392783 18.9521 8.91129
1967 1 2.8629 18.3987 9.27698
2811 2 1.73018 19.5463 9.00055
984 1 1.98794 20.5771 10.0571
195 3 0.798232 20.1402 12.1578
1677 1 6.57397 19.8304 9.1874
2696 2 7.10274 19.4429 10.5559
2357 1 6.09439 19.7893 11.7809
442 1 7.09438 17.8989 10.6365
2832 2 6.08568 21.146 12.5527
1110 1 8.46887 19.9716 10.8332
491 1 11.4586 18.7262 8.93045
966 1 11.8994 18.4845 11.4775
455 1 12.0549 20.7823 12.5352
2716 2 12.5917 18.7196 9.9708
2251 1 15.8578 19.2596 8.42086
1856 1 16.5424 17.3185 12.1928
2548 2 16.9605 20.3748 8.54122
2184 1 13.6915 17.6199 9.81964
2128 1 13.2984 20.1147 10.0895
351 3 15.4808 19.281 10.9425
516 1 16.7514 21.2183 12.1437