ITEM: TIMESTEP
1610000
ITEM: NUMBER OF ATOMS
2999
ITEM: BOX BOUNDS pp pp pp
-3.8651183515989729e-01 3.4889011835157191e+01
-3.8651183515989729e-01 3.4889011835157191e+01
-3.8651183515989729e-01 3.4889011835157191e+01
ITEM: ATOMS id type x y z
603 1 0.996418 2.42891 1.51908
180 4 3.13614 2.03333 2.19317
2814 3 -0.179563 2.31296 0.54096
582 1 3.75496 0.549318 0.662203
2832 3 7.22743 2.71192 0.637603
678 1 6.55447 1.43579 0.948528
951 1 4.35302 3.87066 2.59205
2171 1 6.81975 3.6648 1.9697
1730 1 4.49941 0.803086 3.98792
1127 1 8.71792 2.71736 0.434469
2876 3 11.2067 0.430711 1.9805
2292 1 11.3267 1.91417 1.63264
1687 1 10.3381 0.0832129 3.35337
1546 1 12.569 -0.157959 2.32443
118 4 10.2399 3.95665 2.02279
191 4 14.7188 1.00046 2.91558
1991 1 14.7827 1.18079 0.618122
2123 1 16.2131 2.87624 2.99124
2121 1 16.5681 -0.331044 2.65123
2239 1 18.6911 3.58093 1.82089
1492 1 18.1989 1.02156 1.31029
2559 3 19.2703 2.25411 1.33683
1254 1 20.6183 1.76297 1.80617
1746 1 19.2748 2.43756 34.9456
1527 1 22.9582 1.28751 0.876187
1619 1 24.4124 0.0509501 3.12916
2820 3 23.5404 0.639224 -0.345498
587 1 22.2431 3.89236 3.78225
738 1 24.1979 2.53731 3.73102
109 4 22.7621 3.66815 1.293
1316 1 24.2908 34.62 -0.270091
2325 1 26.4983 1.56287 3.45978
60 2 27.5358 2.92838 2.83526
2094 1 29.1021 2.03157 2.79255
918 1 27.4431 2.56867 0.996466
2892 3 27.6185 3.29339 -0.338864
1351 1 30.6683 0.242124 3.44357
2866 3 30.564 1.8486 3.12218
483 1 31.4538 1.86001 1.76503
2529 3 32.269 3.03538 0.955533
1699 1 33.8966 3.09295 1.35122
2191 1 2.82914 4.39345 0.100483
724 1 1.36006 5.81805 2.98533
296 4 3.38916 6.75712 1.76364
2255 1 4.02337 7.57588 3.87225
2880 3 5.69565 4.65055 2.5235
465 1 5.48966 5.94141 1.80462
853 1 7.86154 8.01015 3.18247
2259 1 8.11284 7.56751 0.671438
443 1 6.29969 4.96682 4.03365
365 1 11.7647 4.38987 0.316095
2736 3 8.89961 7.38186 2.14671
912 1 9.1051 5.97099 2.49411
1669 1 10.1872 8.25745 2.04922
1019 1 14.258 4.54018 0.668242
2296 1 16.2416 6.93831 -0.229837
150 4 16.8992 4.91281 0.596165
920 1 15.9376 6.00625 2.64026
2512 3 16.8 5.96883 3.88119
2446 3 15.3022 8.13597 34.6415
2303 1 17.7711 7.17201 3.59067
2415 3 21.118 7.28846 0.426069
2102 1 19.7465 7.31919 -0.0453941
1248 1 21.1632 4.28117 -0.264384
1884 1 20.2771 7.53697 3.56269
1934 1 21.6254 6.22504 1.34289
177 4 22.2119 6.47658 3.81505
1985 1 24.0478 5.35658 2.21981
2826 3 25.5475 5.55713 2.67018
1232 1 23.3578 8.21766 2.65043
1736 1 26.4308 4.34935 2.6668
2258 1 26.3397 6.36997 1.48589
380 1 28.7283 7.19392 1.90082
2718 3 27.3264 7.72884 1.35214
2616 3 29.8968 8.26614 2.68214
1926 1 27.99 4.8025 34.9753
1610 1 29.5435 8.59442 4.08303
775 1 28.5334 3.97091 4.23066
141 4 30.178 5.59655 -0.0568082
1143 1 27.5034 7.91738 -0.192543
2115 1 31.4468 4.19696 1.36374
2164 1 32.4221 6.47709 0.770425
2541 3 32.5655 6.93442 2.12546
1657 1 33.3755 5.89251 3.03838
788 1 31.2252 7.23333 2.91823
1969 1 2.89261 9.89796 2.51566
183 4 1.87442 11.1029 0.686022
1344 1 0.0589897 9.82959 1.61987
2823 3 3.21072 10.3879 3.84821
1010 1 4.0072 12.7738 1.11681
909 1 2.3287 11.7125 4.08692
2066 1 6.56301 10.3849 1.78906
2607 3 6.58194 10.6571 0.264615
1022 1 6.19698 12.1774 -0.0116259
26 2 6.31445 11.2306 3.58786
1399 1 8.21746 11.0596 0.0175294
1027 1 6.17978 12.8755 2.54471
1999 1 6.0233 9.81503 34.4761
1585 1 10.8783 11.1149 2.67727
51 2 11.1753 9.44178 3.07612
2971 3 11.2861 12.6063 2.58142
976 1 12.5112 9.0853 1.8201
1599 1 14.8066 8.7735 0.808735
2410 3 13.5666 9.87744 1.05231
1123 1 14.2393 10.9746 1.92051
2721 3 15.1641 11.2815 3.23993
2035 1 16.53 10.7129 2.9665
1575 1 13.1696 10.4182 -0.288447
2233 1 17.7591 10.2125 0.643901
944 1 18.578 9.49187 3.52506
38 2 18.2074 10.8012 2.26291
1502 1 19.9972 11.3659 2.19011
2334 3 21.1574 11.5075 3.12121
940 1 17.7629 12.5034 2.07028
2196 1 21.4319 8.80016 0.991505
1859 1 21.9733 10.1582 3.19381
2570 3 22.6598 9.35538 1.98105
2001 1 22.1595 12.5933 2.79826
553 1 23.4148 10.3888 1.14874
1972 1 25.7729 11.9411 0.291851
303 4 25.4508 8.78064 3.97999
1661 1 26.027 12.2766 2.86429
2431 3 26.4809 12.5293 1.47454
554 1 26.7412 8.83872 2.14197
531 1 28.0713 12.0698 1.42863
2553 3 29.3036 12.7724 2.04725
2315 1 33.4118 8.20038 2.26962
1147 1 30.375 9.19212 1.55674
2295 1 30.5063 11.9537 1.69371
2209 1 33.8865 10.1347 3.65294
24 2 31.1765 10.7244 0.607568
2357 3 33.9453 9.73458 2.08934
2030 1 32.774 10.5578 1.47521
635 1 0.564146 13.0065 1.25395
2985 3 0.458137 14.0656 0.28208
1168 1 2.51748 16.7713 0.382254
2015 1 0.53191 16.7503 2.92253
1412 1 -0.289155 15.2797 0.783513
2735 3 5.41941 13.018 1.25366
1198 1 5.74476 14.5711 0.802971
2321 1 5.60623 17.081 0.123882
2673 3 5.72691 15.6436 -0.334712
543 1 12.1175 12.9808 1.44933
1998 1 9.2188 14.7877 0.772196
691 1 8.78741 15.7995 3.05978
487 1 10.0129 13.4686 2.79071
2495 3 9.7442 14.9768 2.10739
1971 1 11.1786 15.5164 2.44581
2920 3 12.685 16.2092 2.11476
974 1 13.4619 15.8357 3.27273
2262 1 13.4185 15.5658 0.852718
1659 1 16.3793 14.6577 2.20907
1007 1 14.9721 12.6886 3.64708
2372 3 17.7841 14.0463 2.25815
1775 1 18.3758 14.2542 3.88115
628 1 18.8358 14.8122 1.29514
861 1 20.6592 14.6292 3.28851
2856 3 18.4925 15.6641 -0.0326679
468 1 19.2826 16.5538 4.14953
778 1 18.2509 17.1059 0.651144
1719 1 21.8859 14.4145 0.670413
19 2 22.2562 14.4861 2.43332
2110 1 22.5328 16.3088 2.5661
2416 3 25.2944 15.1889 1.94103
1408 1 24.1407 14.2716 2.26335
1821 1 25.0208 16.3064 1.03405
1566 1 26.1967 15.5858 3.25893
2137 1 26.3811 14.177 1.20748
455 1 28.9256 12.9453 3.50697
948 1 29.4417 14.1167 1.21074
2804 3 29.7698 15.6997 1.50484
2288 1 28.6085 16.2791 0.766429
601 1 29.9165 15.8716 2.92009
830 1 33.4004 12.6969 3.36988
194 4 34.5964 14.6438 3.07707
604 1 31.0927 15.8133 0.625439
2142 1 2.96094 17.0835 3.96301
2648 3 1.64621 17.6841 3.48275
1869 1 1.72047 18.9463 2.54798
249 4 1.50266 21.0609 1.5081
115 4 -0.0560879 17.662 0.843835
1735 1 3.73544 20.7642 2.25336
2138 1 5.76251 17.4845 3.12615
181 4 4.15931 18.3279 1.43274
1156 1 6.68674 19.6581 1.24025
2766 3 7.18649 20.4591 2.37382
2492 3 4.65774 21.3086 3.32619
1596 1 7.13296 19.5458 3.75388
1241 1 6.11505 21.6722 2.71284
768 1 8.48929 21.082 2.13514
120 4 10.9919 19.5085 2.38598
496 1 11.6584 19.8594 -0.0172226
1849 1 9.75015 18.0683 3.42092
1968 1 12.3094 17.6517 1.66868
2034 1 14.4797 19.9698 1.92071
205 4 13.9987 19.3563 -0.108838
2638 3 14.2855 20.1411 3.38868
857 1 16.1964 18.6347 -0.147092
2947 3 17.6247 18.6043 0.313574
1714 1 18.0377 19.4403 1.48598
1354 1 21.037 18.2639 3.40737
93 4 18.8595 20.7987 2.96574
2436 3 22.5551 17.6552 3.1632
1712 1 23.3125 18.6739 2.43616
79 4 24.274 18.214 -0.311538
835 1 25.9887 18.0897 4.03279
195 4 24.8112 19.9105 4.12316
631 1 26.3475 19.0493 0.174753
2486 3 28.9987 20.1053 3.00825
2148 1 27.5775 20.0188 2.15491
2400 3 27.2505 20.1818 0.589803
552 1 30.1673 19.6048 2.14727
1194 1 28.6242 20.1134 -0.167617
2302 1 26.7015 21.6026 0.386833
23 2 30.5604 20.0935 0.147076
1684 1 29.0896 21.7349 3.34162
2480 3 31.7771 17.3069 0.114551
673 1 30.6111 18.2926 0.0797079
1506 1 34.6304 19.99 1.16416
1630 1 32.9252 17.5864 1.08458
291 4 33.1803 19.5081 3.17654
2104 1 32.344 20.3119 0.114344
2632 3 33.8824 20.1486 -0.192116
1322 1 0.676574 22.7112 2.64598
2720 3 0.243022 24.13 2.68216
1787 1 -0.26854 24.6929 1.1807
1420 1 1.15564 25.1942 3.23247
1120 1 2.14464 22.9172 0.114723
2345 3 -0.178407 26.0593 0.347108
408 1 3.98608 22.7572 3.71511
655 1 7.08787 25.527 0.784338
718 1 5.91739 25.3352 3.14779
1255 1 8.72391 24.0022 2.50115
254 4 10.1568 23.1438 0.892098
780 1 12.3967 22.7592 0.21229
1518 1 11.3407 22.4007 2.75455
1213 1 10.7532 25.491 3.25399
1021 1 10.0141 25.3466 -0.0578582
2828 3 9.30382 24.7041 3.67829
1182 1 13.2525 25.8924 3.14863
2459 3 15.5178 24.3448 1.28621
1748 1 14.969 23.1203 0.472003
911 1 15.3681 23.8941 2.8207
1337 1 17.0189 24.6261 0.877689
431 1 14.8526 25.6174 0.982533
653 1 20.6415 22.3262 2.55562
1517 1 18.1537 22.3462 1.20177
2916 3 18.4696 23.846 1.2599
1794 1 19.1028 24.5052 2.48422
1600 1 19.2962 24.2258 0.0495885
15 2 19.4715 25.5579 3.9107
546 1 21.8043 24.465 1.42158
2756 3 21.9107 23.0564 2.04864
2016 1 22.6632 22.0117 1.19506
1002 1 24.8136 24.4805 2.51228
2677 3 24.3346 23.4137 3.45609
522 1 22.7478 23.3925 3.40047
2050 1 24.6675 21.9264 3.41424
169 4 26.8621 23.8197 0.689686
2062 1 27.8484 23.7289 2.8484
2763 3 29.4752 25.1648 34.8185
882 1 30.2924 24.2901 0.629758
2071 1 30.5727 21.862 0.614558
2662 3 28.3235 22.9249 4.02843
824 1 32.9043 21.7353 3.1033
1271 1 34.0291 24.0115 3.33835
1638 1 32.3978 23.4459 1.40995
2805 3 32.7031 23.2237 2.97135
2629 3 31.3283 23.0836 0.289651
2017 1 31.5811 23.8916 3.70393
88 4 3.04973 27.6225 0.842246
600 1 2.0732 29.0326 2.62237
1875 1 0.96876 26.788 0.857976
1089 1 2.53921 29.7792 -0.228425
2708 3 6.10822 26.0919 1.69992
2126 1 4.71606 26.1498 1.22236
1749 1 6.56312 27.5031 2.29843
2754 3 6.42194 29.1005 2.24538
2032 1 4.97725 29.4947 1.9979
2105 1 7.55597 29.4465 1.10165
720 1 7.0309 29.5527 3.56774
2895 3 7.2808 30.3254 -0.21771
1793 1 12.2201 26.2376 0.617929
2413 3 10.8684 26.5716 0.10394
2960 3 10.8661 28.4609 2.23188
1707 1 10.1432 27.5647 1.15429
624 1 10.3861 29.8858 1.81362
2139 1 12.3843 28.3409 2.27867
591 1 10.0151 28.0034 3.44004
49 2 13.687 27.0793 1.68309
2195 1 15.297 27.5906 2.61695
2438 3 15.7485 28.8387 3.47471
1060 1 14.0833 28.0834 0.157917
1905 1 15.1633 30.1746 2.86407
1284 1 17.3914 28.9482 3.35542
2231 1 18.2879 28.4598 0.924242
2937 3 18.4879 28.3226 2.40533
2068 1 19.9116 29.2022 2.76678
466 1 18.7263 26.9286 2.85787
2003 1 20.7615 30.2463 0.458666
2982 3 21.3453 28.8466 -0.342926
860 1 21.8513 27.7893 0.694223
2506 3 20.5198 30.4506 2.04427
235 4 23.6188 26.4675 1.73151
1792 1 25.7993 27.0696 1.63475
1231 1 23.0642 27.4435 3.97324
1877 1 21.9087 30.5085 2.65482
1836 1 26.1865 29.0767 2.99624
702 1 25.8073 29.2935 0.473632
1165 1 28.6448 26.1174 0.667095
2636 3 26.4183 28.4073 1.68495
2300 1 28.0509 28.4361 1.21972
2650 3 29.1749 27.2368 1.64759
1603 1 28.8985 26.8519 3.06767
970 1 30.4557 27.8476 1.12324
2083 1 33.7392 26.7754 0.296045
219 4 32.6685 28.4264 1.64101
961 1 32.6814 27.1289 3.52421
2135 1 33.6894 30.1607 2.54541
834 1 1.73673 32.2164 2.04573
2389 3 0.713385 33.1152 2.57181
1358 1 1.32362 34.0012 3.72486
1026 1 -0.188738 33.8202 1.59409
2112 1 3.73272 33.2904 0.429237
1800 1 34.9409 32.1857 3.6291
292 4 3.60054 31.3346 1.43411
2133 1 7.96859 34.4793 2.82324
172 4 6.64437 33.7816 1.07901
526 1 5.48601 32.9209 3.0027
704 1 6.33412 31.4418 0.189934
928 1 10.4731 -0.263132 0.864857
389 1 8.35364 33.4138 -0.165995
1332 1 9.12345 31.7521 2.88197
1694 1 11.6345 32.002 2.74808
1134 1 10.3768 32.0638 0.743906
2595 3 10.3937 31.4364 2.25097
114 4 12.3152 33.412 0.281742
2394 3 8.9353 -0.372382 3.90607
2747 3 9.38588 32.3788 34.8067
1533 1 13.2366 31.4349 0.744418
535 1 15.6562 31.9554 1.25797
2664 3 15.6005 31.7326 2.91991
2783 3 14.546 31.7365 0.0715665
1563 1 14.4402 32.4546 3.60624
578 1 16.8961 31.9273 3.56827
259 4 21.6087 -0.203677 2.43975
2522 3 17.9714 -0.434557 2.16274
905 1 19.1586 34.5731 3.11484
730 1 18.1177 33.6737 1.08871
1771 1 19.7419 31.7262 2.29026
664 1 20.5221 34.0604 0.37747
2448 3 19.2163 33.747 -0.135947
1487 1 23.8193 30.5645 1.10714
2599 3 25.2248 30.7928 0.393308
1239 1 23.952 31.3248 3.48082
2737 3 23.1635 31.5795 2.24845
1216 1 22.7066 32.9018 1.75227
1186 1 26.1475 31.8031 1.05677
233 4 25.9817 34.3451 1.34913
308 4 28.9201 30.6939 0.831027
1397 1 28.0114 33.8762 2.83981
1801 1 30.1691 30.9637 2.67931
2515 3 30.0684 31.6775 3.98166
2641 3 34.4135 30.7968 3.62551
2799 3 31.5867 34.2518 3.34363
1676 1 31.9648 33.7417 2.04527
128 4 33.3694 34.3495 -0.0734638
1272 1 1.81399 1.15454 4.48324
111 4 2.60718 2.68788 6.17298
2379 3 1.06631 -0.129584 4.90172
2306 1 1.01221 0.172089 8.26158
930 1 -0.468537 0.293633 4.73415
2327 1 34.6122 1.99418 8.56102
744 1 4.02612 0.595081 6.54985
1259 1 6.35929 0.109205 5.63635
2728 3 7.35382 1.3842 5.62312
2658 3 4.77918 0.120325 5.30583
1149 1 7.61868 1.68448 7.0066
710 1 6.86472 2.64989 4.81752
1435 1 4.6483 3.47768 5.51692
1460 1 11.0171 3.7235 4.02254
1341 1 8.56416 1.02616 4.68663
1380 1 11.0928 2.0765 5.83494
2637 3 11.4549 0.847136 6.79598
2566 3 12.0479 3.07092 4.94001
1289 1 10.1601 0.670898 7.59394
1901 1 13.2003 2.19213 4.3687
1556 1 12.6066 1.62986 7.69083
1324 1 14.8783 0.834298 7.15643
590 1 16.2597 3.46392 5.41532
377 1 14.7204 -0.27473 4.96401
2853 3 15.5959 -0.20278 6.14434
2402 3 17.2018 3.17129 4.05275
1812 1 20.8923 0.496449 4.65469
211 4 19.1405 0.957445 6.10192
2263 1 18.4109 2.36198 4.44209
1152 1 18.4329 2.68677 7.56158
1091 1 17.0019 0.107008 5.95297
2555 3 25.0856 1.1645 3.92508
592 1 22.6829 2.48637 5.87559
967 1 21.8095 0.991971 7.96625
2710 3 23.2974 3.37966 4.78643
9 2 23.4554 1.10495 6.71985
2176 1 24.9188 1.05718 5.47856
2320 1 24.5063 1.36361 8.20606
2845 3 29.3031 2.73559 7.39439
759 1 28.6118 1.44885 6.93619
40 2 28.4302 -0.303255 7.04894
540 1 28.3667 3.89173 6.67444
1880 1 32.861 34.4692 4.27859
1891 1 31.1536 2.7315 4.19205
515 1 30.6231 2.78941 6.7119
20 2 32.1176 2.84345 5.76703
1586 1 32.8726 1.23307 5.81562
2787 3 33.4787 -0.131853 5.52752
1906 1 33.3259 3.55526 7.3133
2552 3 1.38191 5.69577 4.47293
418 1 1.895 4.38707 5.04875
1874 1 1.81252 7.08269 5.16098
2774 3 3.17358 7.94686 5.05352
416 1 -0.175354 5.84302 4.88136
1066 1 0.846473 5.23271 8.15166
2169 1 4.06803 7.81047 6.26012
2678 3 6.09934 4.02228 5.31796
620 1 6.81761 4.63065 6.51188
2190 1 8.18582 8.2224 5.85722
123 4 8.47027 5.95758 6.96624
924 1 10.4646 5.41271 6.4019
2986 3 11.9132 5.43715 6.71793
2193 1 12.3931 5.52872 8.13802
2460 3 12.4736 8.13375 5.84383
2069 1 12.461 4.00162 6.26825
2286 1 12.625 6.5539 5.75785
1840 1 14.7885 4.69148 7.14879
2964 3 16.0228 4.71825 6.30949
1569 1 16.2143 5.99878 5.30975
1660 1 17.759 4.7378 3.94167
2539 3 18.9271 8.14116 4.07447
2461 3 18.5619 4.1609 7.85329
1369 1 19.8755 4.648 6.94301
1942 1 17.3872 5.03523 7.13135
2456 3 20.7878 5.97506 7.2399
2313 1 19.8115 6.9725 7.86235
2122 1 18.8561 8.07578 5.58769
1597 1 25.605 6.43604 3.9519
367 1 21.563 6.17241 6.01743
583 1 24.1338 4.46824 5.35566
155 4 24.8482 6.22386 6.27822
1672 1 26.4771 8.01596 6.10894
2869 3 28.8178 4.79791 5.42021
671 1 27.5983 5.86234 5.70035
2685 3 27.5859 7.25925 6.87343
2029 1 27.1632 6.54963 8.13903
2079 1 28.7943 8.02578 7.01166
772 1 30.0713 5.71689 5.45862
266 4 34.2232 6.30121 7.59137
503 1 33.1257 4.11065 4.73659
72 4 31.0693 7.53682 6.16602
2745 3 33.6014 5.5363 4.59808
1267 1 32.8379 6.54589 5.48434
694 1 31.6579 6.46286 8.29452
1256 1 34.6102 8.46937 7.63623
2323 1 2.66513 9.53441 5.05814
2445 3 3.76957 12.6746 7.20281
881 1 -0.383636 10.986 8.03644
993 1 2.36722 12.9539 6.25449
969 1 4.19071 11.2874 7.05531
528 1 4.70548 10.4849 4.18753
1058 1 7.29344 10.0451 4.37161
131 4 5.29101 9.2408 7.52794
567 1 6.37617 12.2086 5.03218
1136 1 7.44518 10.8065 7.52214
2927 3 8.26532 8.85655 4.53692
2977 3 7.4892 12.1771 8.15466
1950 1 12.2365 8.61917 4.36465
1161 1 11.5584 8.64235 6.84624
1987 1 9.74813 9.33532 4.41838
338 1 11.3813 11.7223 6.13004
253 4 9.83345 10.1865 7.05359
1534 1 14.5302 10.3431 4.43119
1166 1 13.9967 8.73954 6.29764
2576 3 14.8763 9.97836 5.97025
866 1 16.3211 9.87798 6.32715
754 1 14.1373 11.1086 6.81243
2976 3 14.4606 12.738 6.91686
215 4 18.2384 9.06573 7.57721
923 1 20.7153 11.8136 4.65279
621 1 19.0841 10.7625 6.32388
2519 3 20.4414 11.3309 6.1101
481 1 20.7518 12.5071 6.91656
326 1 21.4915 10.0642 6.22161
1615 1 23.4915 8.58697 5.82449
2353 3 23.1483 9.98378 6.18381
1414 1 23.7583 10.8899 5.14081
1781 1 23.4607 10.5692 7.70408
1817 1 25.4476 11.8977 8.2291
1532 1 26.3603 13.0969 5.95908
2726 3 23.8557 11.971 8.35417
2521 3 26.5715 12.7893 7.42934
1410 1 27.7861 11.9938 7.72241
301 4 28.8766 10.1358 8.1973
2568 3 33.4561 11.5174 4.31354
808 1 34.4869 11.6103 5.50341
1006 1 31.2428 9.88931 6.99204
2835 3 34.2841 12.0974 7.05775
2271 1 32.1336 11.0191 5.02708
2806 3 31.4359 11.2713 6.43601
1856 1 32.7377 11.9458 7.19932
451 1 30.3767 12.3064 6.4657
1000 1 3.46737 14.1866 4.26955
1163 1 0.937782 13.7724 4.34517
2834 3 2.34101 13.2586 4.66441
605 1 0.303123 16.1385 7.16536
1979 1 34.904 13.4303 7.15948
753 1 4.13729 16.2364 7.44344
833 1 7.45998 13.3881 7.05004
136 4 4.41915 16.0171 5.1023
1313 1 4.88093 13.6774 6.55386
2631 3 6.2877 13.5036 5.81187
2192 1 6.5539 14.7928 5.16901
895 1 6.60803 16.677 7.96732
960 1 7.66032 17.2699 4.67717
1440 1 11.9812 12.9836 4.04004
2363 3 11.7222 13.0544 5.55122
2183 1 10.8817 14.2549 5.8637
44 2 10.3177 15.5188 6.86151
1591 1 11.7993 16.4133 7.54813
1666 1 9.93485 16.4586 5.30936
1717 1 9.13007 16.9036 7.657
2443 3 9.1131 16.9564 4.16395
100 4 15.245 14.8 4.18032
2240 1 13.3266 13.3657 5.92882
1343 1 15.9144 13.1562 6.50817
1047 1 15.7266 16.8143 4.96183
2370 3 19.695 14.9933 4.34232
262 4 17.9561 13.0564 7.20803
1116 1 19.9777 14.7872 5.82365
86 4 21.5218 14.6267 7.82346
1967 1 21.0979 17.0357 8.13242
209 4 24.6214 12.9261 4.48185
549 1 23.3346 13.0965 7.53066
756 1 23.2131 14.8394 4.5529
1236 1 25.1228 15.9758 5.46466
2592 3 23.433 16.0416 5.41346
742 1 23.0475 16.0953 6.86112
1526 1 23.0606 17.3904 4.64843
2851 3 26.2381 16.6586 4.44298
1151 1 27.4803 16.2048 5.18408
2301 1 28.8724 15.2319 7.33147
2070 1 26.4573 14.3134 8.03703
161 4 29.4392 14.2339 5.20871
2304 1 33.3069 16.2217 4.31957
1146 1 32.1323 14.1534 5.24152
2711 3 32.2974 15.6524 5.25285
399 1 30.8968 16.2469 5.50691
1613 1 33.0347 15.9539 6.74969
2482 3 34.2179 16.7765 7.20233
623 1 1.20795 18.0454 5.06904
2693 3 0.114994 18.9739 5.70053
1129 1 0.732956 19.5322 6.98293
2784 3 0.583863 20.7508 8.21566
1048 1 34.8763 19.9372 4.71798
2140 1 1.65458 21.72 8.2342
2838 3 7.95374 17.3744 8.40914
2885 3 6.49638 18.2073 4.21278
1764 1 4.46519 19.6126 7.43306
1428 1 4.68363 20.5027 4.58717
1126 1 5.6573 18.2581 5.57122
4 2 5.44482 20.023 6.14932
1963 1 7.11044 20.5281 6.33023
2698 3 8.4025 20.096 7.13575
1990 1 7.83603 18.9122 8.27741
1644 1 8.63372 21.3514 8.04222
716 1 9.5067 19.4653 6.43337
127 4 11.8785 19.5455 5.96357
2081 1 12.8744 19.7875 3.73791
1507 1 12.0195 18.7536 8.34569
1917 1 15.2991 19.1431 4.23675
615 1 13.4498 18.0365 5.66828
2411 3 14.9531 18.0549 5.3873
1385 1 15.6516 18.5357 6.75615
1370 1 13.9868 20.3879 7.67608
2649 3 15.3391 19.7124 7.89985
1103 1 16.5905 20.4907 7.95577
1135 1 18.8797 19.0476 4.40783
2098 1 20.8637 17.7141 5.73353
2843 3 19.9282 18.0091 4.48665
2886 3 20.7428 18.2367 7.30677
630 1 20.3375 21.0521 5.89125
382 1 19.3791 18.7405 7.37357
248 4 18.7918 20.7972 8.18549
941 1 21.8591 19.4064 7.28239
2342 3 21.7899 20.694 6.05915
2025 1 22.7493 20.463 5.01454
721 1 24.5897 18.4053 8.2764
1964 1 25.9111 20.5534 6.13938
1664 1 28.6604 19.495 4.36937
1813 1 27.128 18.0925 7.56315
276 4 29.083 17.7138 6.11132
1374 1 30.3776 19.4682 6.94501
1919 1 34.1939 18.0752 6.3304
2266 1 31.5547 19.0784 4.71449
2703 3 31.3038 20.0902 5.86119
2249 1 32.8132 20.0964 6.6161
897 1 31.0056 21.5361 5.60465
2908 3 32.8741 20.8825 8.00918
985 1 2.52249 24.0594 5.23508
1718 1 0.242283 25.2739 5.63829
54 2 1.92564 25.852 4.97325
2364 3 3.14967 25.8323 8.0231
2691 3 3.86818 23.3899 5.21317
363 1 4.1254 22.5312 6.43931
1079 1 5.09458 24.4692 5.09798
946 1 4.3955 25.0267 7.89394
1407 1 7.21572 23.4542 8.03369
287 4 6.63593 25.6642 7.78643
1059 1 8.52831 25.5977 4.5564
2705 3 5.12473 25.9264 4.4349
1837 1 11.5199 21.7178 5.19084
2929 3 12.1446 25.4952 4.00441
2668 3 11.192 22.7461 4.24653
854 1 9.80977 23.5806 4.67843
1330 1 12.2856 24.0099 4.56685
2026 1 10.1808 24.6971 8.39705
1559 1 14.6251 21.6458 3.81379
1945 1 16.9674 21.9805 3.91484
2589 3 15.6868 22.7325 3.87378
1685 1 15.3729 23.5886 5.14303
43 2 15.2029 24.345 6.66169
2064 1 13.6629 25.2659 6.8761
1592 1 16.5331 25.6761 6.92181
2061 1 15.003 23.3546 8.0985
1434 1 18.5136 22.9745 7.07715
1567 1 19.6941 24.0646 5.01031
2741 3 19.486 24.018 6.53761
525 1 19.0456 25.5559 6.92044
2311 1 20.9263 23.9077 7.16702
490 1 17.7328 25.8549 4.71176
2423 3 17.7334 26.1076 6.17308
1321 1 20.9416 26.3416 4.42516
1810 1 22.4572 21.8941 7.05706
2839 3 21.7973 22.841 8.04586
1957 1 24.4791 23.9553 5.01901
2978 3 25.5282 24.4363 6.04166
740 1 24.7208 25.1703 7.24886
1438 1 25.9902 23.1386 6.84339
379 1 28.0567 21.7511 7.15119
2422 3 26.8499 21.7522 6.31935
1391 1 27.1355 22.1974 4.71864
484 1 26.5801 25.2835 5.38511
1465 1 29.0935 23.7879 5.05618
1691 1 30.0014 24.7425 7.83327
158 4 28.7328 25.9645 5.34521
1069 1 34.4514 21.4347 7.86592
208 4 31.234 23.8173 5.98741
1997 1 33.3202 24.2746 6.51028
2490 3 34.2636 25.4262 6.43149
2222 1 31.9316 22.0307 8.03551
1761 1 -0.57117 26.0044 7.89614
2996 3 1.51036 28.8932 4.0354
542 1 3.63242 26.3471 4.26699
1495 1 2.58095 26.306 6.70893
2248 1 1.17152 27.5163 4.57807
1838 1 2.51005 29.6012 5.14309
1457 1 0.162679 29.7359 4.24561
561 1 6.02592 26.6968 5.29906
957 1 7.87357 29.5897 6.52197
274 4 8.45183 27.6761 5.12106
1211 1 4.27169 30.437 6.59614
1842 1 5.84791 27.6898 8.27394
1468 1 12.0429 26.4544 5.19575
1177 1 8.98263 26.5786 7.1903
1670 1 11.5475 26.5175 7.53604
1695 1 11.2301 30.1265 7.35765
2734 3 12.7939 26.4824 6.63046
1055 1 10.3344 29.9861 5.1575
2704 3 10.0782 26.2913 8.27965
958 1 13.5922 27.7838 6.67851
1111 1 15.3436 28.8414 4.95606
45 2 14.5494 29.5083 6.52295
396 1 15.9055 28.7597 7.5677
446 1 12.8647 30.0984 5.412
887 1 13.6951 30.3317 7.91187
2796 3 17.3607 28.4112 7.86111
956 1 18.0026 27.6755 6.51438
594 1 21.4472 28.4427 5.5147
933 1 21.4925 29.8113 7.72416
2797 3 21.6998 29.9967 6.1357
971 1 20.4449 30.7462 5.6498
2326 1 22.7614 26.4318 6.30001
2348 3 24.1659 26.711 7.11509
2909 3 22.0527 27.1156 5.00733
1758 1 25.041 27.6015 6.25796
260 4 24.8531 29.5067 4.72184
1547 1 23.0253 30.5659 5.71416
1604 1 27.9436 27.4459 6.85414
2901 3 28.4288 28.425 7.87257
1252 1 27.6347 29.853 7.72045
1392 1 29.8068 28.9683 7.7342
1429 1 31.153 26.5406 5.51262
2367 3 32.3512 27.2142 4.9308
1941 1 32.266 28.8163 5.24523
1642 1 33.6069 26.8211 5.81705
735 1 1.22057 34.301 6.17195
2444 3 3.0111 31.0084 5.67802
1673 1 2.00243 31.7731 6.42942
112 4 0.178133 32.945 7.55341
281 4 3.23043 34.2639 8.06497
1431 1 3.83 31.6222 4.48388
1496 1 -0.0648025 31.1562 9.05841
2933 3 7.76546 30.5664 7.68274
1734 1 6.22293 30.6403 8.13146
2802 3 5.1918 32.5783 4.43959
789 1 6.21646 31.967 5.29485
1018 1 4.49666 33.8329 5.15327
2855 3 4.61578 30.7947 8.03879
1993 1 4.01524 32.0702 8.4503
1379 1 12.0321 34.934 6.16804
236 4 8.29264 31.1116 4.94911
458 1 8.34635 31.9103 7.46924
2945 3 11.5263 30.625 5.82066
1820 1 9.14961 33.9974 5.04125
2213 1 11.4131 32.1371 5.9348
167 4 10.1492 33.5922 7.52498
242 4 12.4203 33.5519 4.32941
667 1 15.4506 31.1967 6.3052
2714 3 16.304 32.2115 7.04777
421 1 15.5381 33.5966 6.86156
1360 1 20.2216 33.7854 6.05521
453 1 17.7675 32.309 6.56827
216 4 18.9161 32.6408 4.35195
132 4 19.5798 31.2122 7.7238
2464 3 21.4016 34.4576 5.24012
1510 1 22.0107 33.4554 4.17191
2065 1 25.6901 30.9123 6.42193
1087 1 22.7673 34.792 6.08386
1582 1 24.9119 33.451 7.6241
185 4 24.263 32.8894 5.551
2335 3 26.2485 30.6166 7.73432
1459 1 30.0635 34.5408 7.86847
1396 1 28.5516 34.3715 5.3517
2702 3 27.7697 33.4955 4.31176
1970 1 26.3584 33.3453 4.7321
1280 1 28.6271 31.9956 4.49106
1234 1 27.1822 34.4487 8.17326
696 1 26.8201 31.9773 8.41835
2432 3 26.0603 33.4122 8.5257
1656 1 30.9688 33.0207 4.08066
2934 3 32.1756 30.2749 5.63859
1892 1 32.2452 30.5575 7.10239
1715 1 33.3234 31.0063 4.94495
646 1 30.7672 30.8729 5.18355
1063 1 33.7551 34.1544 6.56914
1086 1 2.71125 2.63582 8.46523
2028 1 0.470615 0.965891 10.6889
2545 3 0.0908314 0.710531 9.2546
2177 1 3.51047 3.33678 10.661
255 4 -0.144003 0.419332 12.6926
2743 3 3.92374 3.65755 12.0746
1944 1 3.86145 0.476574 12.0915
2750 3 3.71772 3.49144 9.04361
300 4 7.18417 2.1821 9.06965
2027 1 7.91204 1.92185 12.084
2214 1 5.18023 3.22312 8.79963
731 1 5.31598 3.26983 12.2857
1389 1 8.18511 0.164279 9.41596
996 1 4.49337 -0.311259 9.87749
1044 1 8.79024 3.76974 9.70407
2690 3 9.43779 1.89313 12.2154
2198 1 10.2228 3.17213 11.6739
1881 1 9.98294 0.986363 10.9857
1423 1 12.6006 -0.0558796 12.1162
2378 3 13.873 0.951815 8.3117
1075 1 13.4068 2.16907 11.4694
486 1 14.3289 2.19263 9.21497
2821 3 14.5427 2.98516 10.5445
1564 1 15.9519 2.84899 11.0126
2867 3 13.4038 1.07763 12.6303
1476 1 14.9733 0.719567 12.7759
2072 1 18.3926 2.24922 12.3886
1590 1 20.4632 0.396061 10.0544
1482 1 19.5103 0.102459 12.9175
2469 3 21.7904 0.431237 9.39368
937 1 22.8877 1.18415 10.2332
2437 3 24.5222 1.66752 9.68698
1024 1 24.7354 3.06386 10.1487
1382 1 25.299 0.581844 10.4716
1329 1 29.2308 3.19266 8.83633
1565 1 29.7168 0.307745 10.3511
1827 1 28.8053 3.74761 11.5895
221 4 30.3957 2.38874 10.7709
2793 3 33.3709 2.84473 8.67593
325 1 32.1598 2.19684 9.17457
1816 1 33.1327 -0.00409072 11.6117
1789 1 32.0577 3.02729 12.5108
1766 1 34.6294 2.66745 12.9857
2384 3 33.4061 3.50139 12.9751
939 1 2.30228 7.34079 8.6653
1760 1 1.87163 5.63639 10.5609
2355 3 1.92091 5.76459 9.05666
35 2 3.13112 6.67152 11.7218
651 1 3.36125 5.07456 8.64842
1805 1 3.40444 5.03351 12.4811
394 1 4.90459 6.9652 11.2415
2441 3 5.95796 7.68987 10.5829
714 1 7.40183 7.00155 11.1145
1011 1 5.97796 7.74757 9.07009
2558 3 9.95443 4.25545 10.4669
1178 1 8.87851 6.838 9.0484
406 1 11.3825 4.64065 10.1375
2561 3 8.86729 6.94102 10.5388
773 1 9.44838 5.66382 11.2259
1057 1 9.75588 8.0483 11.206
1716 1 12.5967 6.44329 11.5827
52 2 12.8513 5.58922 9.9263
1190 1 14.0547 4.38303 10.3318
1228 1 16.1764 8.06588 8.81289
1450 1 13.9073 6.88702 9.39441
2341 3 15.0682 7.7984 9.73658
2406 3 16.8298 7.58737 11.9285
566 1 15.4263 7.44663 11.1993
228 4 17.8836 4.17448 11.6039
2114 1 18.6378 4.57532 9.25905
1455 1 20.7029 5.13982 11.4198
1318 1 17.8201 6.59322 11.3121
230 4 19.8275 7.30491 10.2664
862 1 20.3022 8.06219 12.2727
2075 1 21.7037 5.33775 8.45538
501 1 24.1038 6.26782 8.33064
1709 1 22.171 7.64055 9.30684
1904 1 23.0676 5.60398 10.5365
2849 3 22.7833 6.30176 9.08479
2587 3 22.1487 5.11399 11.7599
277 4 27.9066 5.31146 9.86097
2324 1 29.6704 6.58802 9.88822
1654 1 27.0763 6.26869 12.0325
2109 1 33.9407 3.78714 9.93969
1530 1 34.1255 6.3217 10.0503
2152 1 33.7877 4.95238 12.1395
2907 3 31.1741 6.66617 9.74258
2517 3 33.5172 5.12849 10.6368
1519 1 31.928 5.26524 10.4432
1553 1 31.8059 7.89034 10.4059
2021 1 2.47931 8.21804 11.1183
2626 3 -0.447548 9.50602 8.71943
2063 1 0.882203 9.41218 9.5232
2550 3 2.35267 8.60055 9.60762
361 1 2.99465 12.2162 12.1042
1386 1 3.35454 9.52097 8.97498
1215 1 6.20371 9.18304 11.1295
1107 1 7.71337 10.7406 12.1865
413 1 6.61238 12.4246 9.28653
2478 3 6.50171 9.9484 12.5371
1706 1 9.14056 12.165 8.47053
682 1 11.9593 9.03128 10.3743
2944 3 10.4264 9.52534 10.6511
2051 1 9.8365 9.73776 9.35314
1363 1 10.5313 10.4519 11.8108
148 4 9.29748 12.3374 12.634
1683 1 13.0575 11.3461 10.3551
2831 3 13.1255 9.91193 10.7908
2036 1 14.3224 9.30859 9.89905
1356 1 13.5695 9.63562 12.2264
766 1 17.228 9.00292 12.108
1371 1 15.0054 12.9715 10.8226
2979 3 15.4373 12.8045 12.2217
1882 1 16.259 11.538 12.6534
1520 1 18.2893 11.8 9.0265
2285 1 19.4425 9.51637 9.40318
2049 1 20.7371 11.6372 9.77893
2532 3 19.3487 11.0149 9.81238
842 1 18.8967 10.8611 11.3076
61 2 17.7693 10.6067 12.533
2188 1 22.3507 10.2699 11.9237
25 2 22.1037 11.6475 10.8771
2322 1 23.5548 11.6925 9.80631
2305 1 24.9384 12.5017 12.9198
1106 1 25.8773 10.4067 11.9747
2276 1 27.7223 8.57179 11.9543
1445 1 27.3947 10.0539 10.0127
2643 3 27.3243 9.96622 11.4823
366 1 28.3705 11.0623 12.0886
2847 3 28.6368 12.5124 12.6956
1436 1 30.2449 11.3828 9.80582
2491 3 30.4324 12.7953 10.2659
1296 1 34.5162 8.50547 11.9259
1083 1 33.7031 9.72498 9.7461
1 2 32.7898 9.1504 11.2184
1210 1 32.4577 10.8753 11.6948
2373 3 32.7038 12.3303 11.9026
419 1 34.2514 12.5203 11.7103
1105 1 3.25431 13.2181 8.52569
174 4 0.949425 14.4558 8.67001
398 1 1.07838 13.9628 10.8556
2542 3 0.0175981 13.8617 11.9364
2451 3 4.99985 16.4022 8.64336
78 4 4.61333 13.2352 10.6393
349 1 5.10463 15.4579 9.76161
1357 1 5.93941 13.5648 12.32
1348 1 6.76124 16.7576 11.9859
1521 1 9.80173 14.4549 8.09795
479 1 11.4462 12.8542 9.1475
1708 1 9.57472 13.581 10.6149
2846 3 9.9435 13.4129 9.20043
521 1 12.0054 17.1357 10.0569
1246 1 12.098 16.2926 12.459
2647 3 12.4517 17.2921 8.55781
47 2 13.0661 13.0278 9.80997
1072 1 14.2489 13.1533 8.35166
2918 3 12.8176 16.1429 11.1702
2275 1 12.8236 14.7476 10.4988
2268 1 16.4576 15.9109 9.24715
341 1 14.2605 16.748 11.2492
527 1 13.9686 16.9761 8.59576
1640 1 16.3287 14.1529 12.5531
1688 1 18.6981 15.0535 8.30688
837 1 17.959 14.4827 10.6414
2466 3 17.9177 15.5984 9.51863
2868 3 17.8699 14.4836 12.2982
2160 1 18.6876 16.9209 9.94797
1365 1 21.6902 15.1889 13.1299
642 1 22.3049 13.1178 11.7862
1208 1 22.4293 15.2395 10.6215
2975 3 22.606 14.6085 12.0499
360 1 24.1282 14.8498 12.3966
34 2 25.8715 14.2921 12.4857
125 4 23.1014 17.3725 9.56079
1452 1 25.6479 16.4042 9.1129
1622 1 25.8111 14.2302 10.4695
1845 1 29.4715 13.2621 11.4893
2361 3 29.3941 15.2973 8.74079
560 1 26.6498 15.8772 12.2935
2997 3 26.5386 14.9717 9.46327
2246 1 28.008 15.4624 9.73681
485 1 30.0214 13.7248 9.06792
872 1 27.3357 13.2565 12.6608
836 1 30.3697 16.3291 9.24859
1037 1 34.395 15.2012 9.63513
1947 1 31.957 13.1597 10.5655
2349 3 34.3139 16.6843 10.1033
777 1 0.40366 17.3712 10.4596
1635 1 0.354456 19.8875 9.43527
848 1 2.7157 18.1119 11.568
1319 1 2.69811 19.0608 9.10819
2281 1 1.36118 20.1449 11.8136
56 2 1.43506 18.8636 10.5111
2386 3 1.33652 21.541 12.4856
2267 1 8.24603 17.1249 10.0261
2013 1 4.86872 17.8245 9.29071
2781 3 4.15918 19.2806 8.89562
1809 1 4.84596 20.3153 9.77399
7 2 6.17548 20.6948 11.086
2667 3 7.81425 17.8284 11.412
2161 1 6.95258 19.0172 11.0334
1115 1 4.81814 20.4299 12.3655
953 1 7.37314 21.2553 12.4635
1301 1 9.00996 17.9743 12.2684
340 1 11.9368 20.0757 11.2839
151 4 12.7217 20.7401 9.44538
41 2 15.2196 17.2399 9.78434
1768 1 15.1621 18.9498 9.23965
846 1 16.6586 17.9894 11.3074
307 4 16.992 20.6946 12.1132
2018 1 18.1808 19.5848 10.2809
2665 3 18.1928 18.1919 10.9516
1393 1 19.0368 18.1094 12.1786
2067 1 21.3701 20.7214 12.2805
2903 3 22.3395 19.61 12.0668
975 1 22.4516 19.0805 10.6758
1489 1 23.7973 20.3589 12.2557
584 1 22.3902 18.461 13.1373